 *******************************************************************************
 ** Site#: 27476        For non-commercial use only    Version 17.119W 32BITS **
 *******************************************************************************
 ** Cite this program as: MOPAC2016, Version: 17.119W, James J. P. Stewart,   **
 ** Stewart Computational Chemistry, web: HTTP://OpenMOPAC.net. Days left:   0**
 *******************************************************************************
 **                                                                           **
 **                                MOPAC2016                                  **
 **                                                                           **
 *******************************************************************************

                              AM1 CALCULATION RESULTS


 *******************************************************************************
 *  CALCULATION DONE:                                Wed Mar 20 13:05:58 2019  *
 *  AM1        - The AM1 Hamiltonian to be used
 *  MMOK       - APPLY MM CORRECTION TO CONH BARRIER
 *  PDBOUT     - PRINT GEOMETY IN PDB FORMAT
 *
 *
 *
 *                 CHARGE ON SYSTEM = 0
 *
 *
 *
 *  PRECISE    - CRITERIA TO BE INCREASED BY 100 TIMES
 *  XYZ        - CARTESIAN COORDINATE SYSTEM TO BE USED
 *  EF         - USE EF ROUTINE FOR MINIMUM SEARCH
 *  T=         - A TIME OF 172800.0 SECONDS REQUESTED
 *  DUMP=N     - RESTART FILE WRITTEN EVERY  7200.000 SECONDS
 *******************************************************************************
 CHARGE=0  AM1 XYZ EF PRECISE MMOK PDBOUT
 Title

   ATOM   CHEMICAL          X               Y               Z
  NUMBER   SYMBOL      (ANGSTROMS)     (ANGSTROMS)     (ANGSTROMS)
 
     1       C          0.00000000  *   0.00000000  *   0.00000000  *
     2       C          1.54745900  *   0.00000000  *   0.00000000  *
     3       N          2.12005575  *   1.36099026  *   0.00000000  *
     4       C          2.10695806  *  -0.77391696  *  -1.21060121  *
     5       O          3.53535033  *  -0.94003166  *  -1.05611858  *
     6       C          1.41394328  *  -2.13613572  *  -1.39946357  *
     7       O          1.70231725  *  -2.71735666  *  -2.68181743  *
     8       C         -0.11247797  *  -1.96085189  *  -1.33922255  *
     9       O         -0.50429048  *  -1.32506383  *  -0.12095279  *
    10       C         -0.84813732  *  -3.31092019  *  -1.46285604  *
    11       O         -0.29466996  *  -4.31665767  *  -0.61500478  *
    12       C          2.52288699  *   1.99639532  *   1.14870006  *
    13       O          2.51710268  *   1.47480308  *   2.25828237  *
    14       C          3.01371496  *   3.40420296  *   0.93761469  *
    15       C         -3.99254286  *   2.22405868  *   2.67497378  *
    16       C         -3.94800340  *   0.68108539  *   2.68551718  *
    17       N         -4.52715089  *   0.13950965  *   3.92271019  *
    18       C         -2.49130435  *   0.20267780  *   2.49880937  *
    19       O         -2.43347213  *  -1.22704241  *   2.40887314  *
    20       C         -1.84326255  *   0.86705131  *   1.26218293  *
    21       O         -0.44387270  *   0.56820248  *   1.23576345  *
    22       C         -2.01171164  *   2.39309179  *   1.38750968  *
    23       O         -3.39920426  *   2.72711716  *   1.48394366  *
    24       C         -1.44456955  *   3.16052775  *   0.18917655  *
    25       O         -2.07129962  *   2.74450587  *  -1.02383053  *
    26       C         -5.33632248  *  -0.96783790  *   3.92788472  *
    27       O         -5.66486564  *  -1.57317184  *   2.91201865  *
    28       C         -5.83907967  *  -1.35723026  *   5.29279137  *
    29       C         -7.20975638  *   6.12397950  *   4.27590868  *
    30       C         -6.24729744  *   6.32876657  *   3.07558998  *
    31       N         -6.74616025  *   7.33454902  *   2.11922934  *
    32       C         -5.91746510  *   5.00223654  *   2.35425468  *
    33       O         -4.86104407  *   5.18330696  *   1.39909013  *
    34       C         -5.52704117  *   3.91753170  *   3.37285134  *
    35       O         -5.36374377  *   2.64462819  *   2.73809717  *
    36       C         -6.65492020  *   3.80998640  *   4.41336628  *
    37       O         -6.76845544  *   5.05515925  *   5.11674095  *
    38       C         -6.40100920  *   2.70355430  *   5.44618077  *
    39       O         -5.09427059  *   2.80540819  *   6.01415028  *
    40       C         -5.86187596  *   8.06212418  *   1.35054975  *
    41       O         -4.64552696  *   7.95204676  *   1.47556099  *
    42       C         -6.50351724  *   9.01160971  *   0.37785070  *
    43       C         -9.74762359  *  10.11173323  *   6.59907609  *
    44       O         -9.07828185  *  10.53618688  *   7.77482518  *
    45       C        -10.05992007  *   8.62065968  *   6.68684358  *
    46       N        -11.06770923  *   8.29020981  *   7.58209323  *
    47       C         -9.39002559  *   7.73717002  *   5.92380639  *
    48       C         -8.32245103  *   8.16501985  *   4.94505193  *
    49       O         -7.18245253  *   7.31452182  *   5.07713496  *
    50       C         -7.87838510  *   9.62719292  *   5.22556361  *
    51       O         -9.02540540  *  10.45933854  *   5.42605685  *
    52       C         -7.09504173  *  10.21118839  *   4.04309328  *
    53       O         -5.71013766  *   9.90296459  *   4.09648774  *
    54       C        -11.75065707  *   7.09323109  *   7.70624600  *
    55       O        -11.59715325  *   6.09867037  *   7.00438181  *
    56       C        -12.79371287  *   7.11592795  *   8.79742623  *
    57       C          2.98235514  *  -3.34117419  *  -2.77160366  *
    58       O          3.90309867  *  -2.40976450  *  -3.33596921  *
    59       C          5.23160354  *  -2.95692239  *  -3.40584941  *
    60       C          5.21951017  *  -4.05418778  *  -4.47025265  *
    61       C          4.22346281  *  -5.14354703  *  -4.04372824  *
    62       C          2.84235149  *  -4.56533067  *  -3.69967141  *
    63       O          2.04177342  *  -5.58734365  *  -3.07675409  *
    64       O          4.06652429  *  -6.11093781  *  -5.09275285  *
    65       O          4.79433451  *  -3.53733160  *  -5.74353001  *
    66       C          6.16882513  *  -1.79368959  *  -3.72592092  *
    67       O          6.17357162  *  -0.88688858  *  -2.61962101  *
    68       H         -5.60765807  *   8.93714829  *   4.14542369  *
    69       H         -0.36742925  *   0.61318044  *  -0.83356015  *
    70       H          1.88715323  *  -0.49561916  *   0.91916449  *
    71       H          2.08915543  *   1.89031690  *  -0.86327062  *
    72       H          1.97881698  *  -0.18359126  *  -2.12713019  *
    73       H          3.75813491  *  -0.78421544  *  -0.11813748  *
    74       H          1.74355658  *  -2.81145047  *  -0.59905883  *
    75       H         -0.45872353  *  -1.33882467  *  -2.17594266  *
    76       H         -0.81254025  *  -3.68196907  *  -2.49248796  *
    77       H         -1.89958387  *  -3.19160493  *  -1.18057871  *
    78       H          0.36801617  *  -4.80178230  *  -1.14274025  *
    79       H          3.00074532  *   3.68789237  *  -0.11909563  *
    80       H          4.04304767  *   3.47849348  *   1.29977026  *
    81       H          2.37443599  *   4.09455999  *   1.49240282  *
    82       H         -3.44246673  *   2.59421244  *   3.55011519  *
    83       H         -4.54845345  *   0.30633229  *   1.84619914  *
    84       H         -4.26210880  *   0.56574747  *   4.80515399  *
    85       H         -1.90072780  *   0.45794412  *   3.38742671  *
    86       H         -3.16067170  *  -1.53808854  *   1.83999923  *
    87       H         -2.35141338  *   0.48736876  *   0.36546677  *
    88       H         -1.48632061  *   2.76163308  *   2.27968183  *
    89       H         -0.36703957  *   3.01336492  *   0.08797973  *
    90       H         -1.63172149  *   4.23409286  *   0.29928081  *
    91       H         -3.02482756  *   2.92018812  *  -0.88587772  *
    92       H         -5.34878607  *  -0.78529297  *   6.08523758  *
    93       H         -5.63986025  *  -2.41875090  *   5.45902618  *
    94       H         -6.91567366  *  -1.16867262  *   5.34336609  *
    95       H         -8.22880770  *   5.89937374  *   3.93685316  *
    96       H         -5.30582706  *   6.72410831  *   3.47983301  *
    97       H         -7.68713540  *   7.23034357  *   1.75741793  *
    98       H         -6.78508332  *   4.66261131  *   1.77385399  *
    99       H         -4.47675927  *   6.07977265  *   1.49635586  *
   100       H         -4.60145758  *   4.24246120  *   3.86524607  *
   101       H         -7.61471068  *   3.58328308  *   3.92930820  *
   102       H         -6.49677200  *   1.71673395  *   4.98865658  *
   103       H         -7.12309270  *   2.76613793  *   6.26717543  *
   104       H         -5.07827727  *   3.66158337  *   6.48319687  *
   105       H         -7.49908203  *   8.66748829  *   0.08665309  *
   106       H         -5.88551333  *   9.07734489  *  -0.52213578  *
   107       H         -6.58203496  *  10.00026021  *   0.83736167  *
   108       H        -10.68569963  *  10.67374268  *   6.54715885  *
   109       H         -8.50240386  *   9.80530015  *   8.05279370  *
   110       H        -11.40426932  *   9.06074238  *   8.15460687  *
   111       H         -9.60034718  *   6.67440848  *   5.97592455  *
   112       H         -8.74769579  *   8.09511174  *   3.93653994  *
   113       H         -7.22899937  *   9.66371625  *   6.11153881  *
   114       H         -7.50283283  *   9.86166541  *   3.09030291  *
   115       H         -7.18452192  *  11.30245398  *   4.02681350  *
   116       H        -12.72822034  *   8.01733082  *   9.41290159  *
   117       H        -12.64834813  *   6.24821087  *   9.44649415  *
   118       H        -13.78740867  *   7.07532369  *   8.34220484  *
   119       H          3.31843382  *  -3.66744810  *  -1.77852629  *
   120       H          5.50270798  *  -3.36319320  *  -2.42198322  *
   121       H          6.21343761  *  -4.48772403  *  -4.61780542  *
   122       H          4.61576059  *  -5.68642330  *  -3.17574606  *
   123       H          2.31410232  *  -4.27973954  *  -4.61831474  *
   124       H          2.12139363  *  -6.36668694  *  -3.66410926  *
   125       H          4.17016706  *  -5.61355926  *  -5.93149847  *
   126       H          4.17400393  *  -2.79993799  *  -5.56707844  *
   127       H          5.83589947  *  -1.23174577  *  -4.60421701  *
   128       H          7.19373575  *  -2.13937497  *  -3.88659887  *
   129       H          5.23786609  *  -0.79539501  *  -2.33110710  *
 


          CARTESIAN COORDINATES 

    NO.       ATOM         X         Y         Z

     1         C        0.0000    0.0000    0.0000
     2         C        1.5475    0.0000    0.0000
     3         N        2.1201    1.3610    0.0000
     4         C        2.1070   -0.7739   -1.2106
     5         O        3.5354   -0.9400   -1.0561
     6         C        1.4139   -2.1361   -1.3995
     7         O        1.7023   -2.7174   -2.6818
     8         C       -0.1125   -1.9609   -1.3392
     9         O       -0.5043   -1.3251   -0.1210
    10         C       -0.8481   -3.3109   -1.4629
    11         O       -0.2947   -4.3167   -0.6150
    12         C        2.5229    1.9964    1.1487
    13         O        2.5171    1.4748    2.2583
    14         C        3.0137    3.4042    0.9376
    15         C       -3.9925    2.2241    2.6750
    16         C       -3.9480    0.6811    2.6855
    17         N       -4.5272    0.1395    3.9227
    18         C       -2.4913    0.2027    2.4988
    19         O       -2.4335   -1.2270    2.4089
    20         C       -1.8433    0.8671    1.2622
    21         O       -0.4439    0.5682    1.2358
    22         C       -2.0117    2.3931    1.3875
    23         O       -3.3992    2.7271    1.4839
    24         C       -1.4446    3.1605    0.1892
    25         O       -2.0713    2.7445   -1.0238
    26         C       -5.3363   -0.9678    3.9279
    27         O       -5.6649   -1.5732    2.9120
    28         C       -5.8391   -1.3572    5.2928
    29         C       -7.2098    6.1240    4.2759
    30         C       -6.2473    6.3288    3.0756
    31         N       -6.7462    7.3345    2.1192
    32         C       -5.9175    5.0022    2.3543
    33         O       -4.8610    5.1833    1.3991
    34         C       -5.5270    3.9175    3.3729
    35         O       -5.3637    2.6446    2.7381
    36         C       -6.6549    3.8100    4.4134
    37         O       -6.7685    5.0552    5.1167
    38         C       -6.4010    2.7036    5.4462
    39         O       -5.0943    2.8054    6.0142
    40         C       -5.8619    8.0621    1.3505
    41         O       -4.6455    7.9520    1.4756
    42         C       -6.5035    9.0116    0.3779
    43         C       -9.7476   10.1117    6.5991
    44         O       -9.0783   10.5362    7.7748
    45         C      -10.0599    8.6207    6.6868
    46         N      -11.0677    8.2902    7.5821
    47         C       -9.3900    7.7372    5.9238
    48         C       -8.3225    8.1650    4.9451
    49         O       -7.1825    7.3145    5.0771
    50         C       -7.8784    9.6272    5.2256
    51         O       -9.0254   10.4593    5.4261
    52         C       -7.0950   10.2112    4.0431
    53         O       -5.7101    9.9030    4.0965
    54         C      -11.7507    7.0932    7.7062
    55         O      -11.5972    6.0987    7.0044
    56         C      -12.7937    7.1159    8.7974
    57         C        2.9824   -3.3412   -2.7716
    58         O        3.9031   -2.4098   -3.3360
    59         C        5.2316   -2.9569   -3.4058
    60         C        5.2195   -4.0542   -4.4703
    61         C        4.2235   -5.1435   -4.0437
    62         C        2.8424   -4.5653   -3.6997
    63         O        2.0418   -5.5873   -3.0768
    64         O        4.0665   -6.1109   -5.0928
    65         O        4.7943   -3.5373   -5.7435
    66         C        6.1688   -1.7937   -3.7259
    67         O        6.1736   -0.8869   -2.6196
    68         H       -5.6077    8.9371    4.1454
    69         H       -0.3674    0.6132   -0.8336
    70         H        1.8872   -0.4956    0.9192
    71         H        2.0892    1.8903   -0.8633
    72         H        1.9788   -0.1836   -2.1271
    73         H        3.7581   -0.7842   -0.1181
    74         H        1.7436   -2.8115   -0.5991
    75         H       -0.4587   -1.3388   -2.1759
    76         H       -0.8125   -3.6820   -2.4925
    77         H       -1.8996   -3.1916   -1.1806
    78         H        0.3680   -4.8018   -1.1427
    79         H        3.0007    3.6879   -0.1191
    80         H        4.0430    3.4785    1.2998
    81         H        2.3744    4.0946    1.4924
    82         H       -3.4425    2.5942    3.5501
    83         H       -4.5485    0.3063    1.8462
    84         H       -4.2621    0.5657    4.8052
    85         H       -1.9007    0.4579    3.3874
    86         H       -3.1607   -1.5381    1.8400
    87         H       -2.3514    0.4874    0.3655
    88         H       -1.4863    2.7616    2.2797
    89         H       -0.3670    3.0134    0.0880
    90         H       -1.6317    4.2341    0.2993
    91         H       -3.0248    2.9202   -0.8859
    92         H       -5.3488   -0.7853    6.0852
    93         H       -5.6399   -2.4188    5.4590
    94         H       -6.9157   -1.1687    5.3434
    95         H       -8.2288    5.8994    3.9369
    96         H       -5.3058    6.7241    3.4798
    97         H       -7.6871    7.2303    1.7574
    98         H       -6.7851    4.6626    1.7739
    99         H       -4.4768    6.0798    1.4964
   100         H       -4.6015    4.2425    3.8652
   101         H       -7.6147    3.5833    3.9293
   102         H       -6.4968    1.7167    4.9887
   103         H       -7.1231    2.7661    6.2672
   104         H       -5.0783    3.6616    6.4832
   105         H       -7.4991    8.6675    0.0867
   106         H       -5.8855    9.0773   -0.5221
   107         H       -6.5820   10.0003    0.8374
   108         H      -10.6857   10.6737    6.5472
   109         H       -8.5024    9.8053    8.0528
   110         H      -11.4043    9.0607    8.1546
   111         H       -9.6003    6.6744    5.9759
   112         H       -8.7477    8.0951    3.9365
   113         H       -7.2290    9.6637    6.1115
   114         H       -7.5028    9.8617    3.0903
   115         H       -7.1845   11.3025    4.0268
   116         H      -12.7282    8.0173    9.4129
   117         H      -12.6483    6.2482    9.4465
   118         H      -13.7874    7.0753    8.3422
   119         H        3.3184   -3.6674   -1.7785
   120         H        5.5027   -3.3632   -2.4220
   121         H        6.2134   -4.4877   -4.6178
   122         H        4.6158   -5.6864   -3.1757
   123         H        2.3141   -4.2797   -4.6183
   124         H        2.1214   -6.3667   -3.6641
   125         H        4.1702   -5.6136   -5.9315
   126         H        4.1740   -2.7999   -5.5671
   127         H        5.8359   -1.2317   -4.6042
   128         H        7.1937   -2.1394   -3.8866
   129         H        5.2379   -0.7954   -2.3311

  H: (AM1): M.J.S. DEWAR ET AL, J. AM. CHEM. SOC. 107 3902-3909 (1985)
  C: (AM1): M.J.S. DEWAR ET AL, J. AM. CHEM. SOC. 107 3902-3909 (1985)
  N: (AM1): M.J.S. DEWAR ET AL, J. AM. CHEM. SOC. 107 3902-3909 (1985)
  O: (AM1): M.J.S. DEWAR ET AL, J. AM. CHEM. SOC. 107 3902-3909 (1985)

           Empirical Formula: C38 H62 N4 O25  =   129 atoms



      MOLECULAR POINT GROUP   :   C1  


      RHF CALCULATION, NO. OF DOUBLY OCCUPIED LEVELS = 192


          Geometry optimization using EF

          DIAGONAL MATRIX USED AS START HESSIAN

 CYCLE:     1 TIME:   0.711 TIME LEFT:  2.00D  GRAD.:   283.862 HEAT: -1057.497
 CYCLE:     2 TIME:   0.316 TIME LEFT:  2.00D  GRAD.:   272.573 HEAT: -1073.143
 CYCLE:     3 TIME:   0.562 TIME LEFT:  2.00D  GRAD.:   137.852 HEAT: -1084.753
 CYCLE:     4 TIME:   0.301 TIME LEFT:  2.00D  GRAD.:   178.953 HEAT: -1086.999
 CYCLE:     5 TIME:   0.309 TIME LEFT:  2.00D  GRAD.:   140.393 HEAT: -1092.459
 CYCLE:     6 TIME:   0.543 TIME LEFT:  2.00D  GRAD.:    75.934 HEAT: -1096.459
 CYCLE:     7 TIME:   0.551 TIME LEFT:  2.00D  GRAD.:    97.952 HEAT: -1096.929
 CYCLE:     8 TIME:   0.289 TIME LEFT:  2.00D  GRAD.:    60.156 HEAT: -1098.389
 CYCLE:     9 TIME:   0.301 TIME LEFT:  2.00D  GRAD.:    87.141 HEAT: -1098.866
 CYCLE:    10 TIME:   0.301 TIME LEFT:  2.00D  GRAD.:    99.239 HEAT: -1099.737
 CYCLE:    11 TIME:   0.316 TIME LEFT:  2.00D  GRAD.:   103.139 HEAT: -1100.111
 CYCLE:    12 TIME:   0.281 TIME LEFT:  2.00D  GRAD.:   126.438 HEAT: -1100.292
 CYCLE:    13 TIME:   0.559 TIME LEFT:  2.00D  GRAD.:    50.936 HEAT: -1102.300
 CYCLE:    14 TIME:   0.547 TIME LEFT:  2.00D  GRAD.:    25.930 HEAT: -1102.845
 CYCLE:    15 TIME:   0.281 TIME LEFT:  2.00D  GRAD.:    24.627 HEAT: -1103.206
 CYCLE:    16 TIME:   0.285 TIME LEFT:  2.00D  GRAD.:    28.891 HEAT: -1103.684
 CYCLE:    17 TIME:   0.293 TIME LEFT:  2.00D  GRAD.:    48.980 HEAT: -1104.149
 CYCLE:    18 TIME:   0.559 TIME LEFT:  2.00D  GRAD.:    52.827 HEAT: -1104.466
 CYCLE:    19 TIME:   0.289 TIME LEFT:  2.00D  GRAD.:    41.037 HEAT: -1104.904
 CYCLE:    20 TIME:   0.285 TIME LEFT:  2.00D  GRAD.:    34.147 HEAT: -1105.337
 CYCLE:    21 TIME:   0.309 TIME LEFT:  2.00D  GRAD.:    64.927 HEAT: -1105.425
 CYCLE:    22 TIME:   0.301 TIME LEFT:  2.00D  GRAD.:    21.984 HEAT: -1106.419
 CYCLE:    23 TIME:   0.801 TIME LEFT:  2.00D  GRAD.:    33.231 HEAT: -1106.497
 CYCLE:    24 TIME:   0.297 TIME LEFT:  2.00D  GRAD.:    16.891 HEAT: -1106.849
 CYCLE:    25 TIME:   0.285 TIME LEFT:  2.00D  GRAD.:    30.569 HEAT: -1107.000
 CYCLE:    26 TIME:   0.285 TIME LEFT:  2.00D  GRAD.:    17.668 HEAT: -1107.433
 CYCLE:    27 TIME:   0.301 TIME LEFT:  2.00D  GRAD.:    37.441 HEAT: -1107.515
 CYCLE:    28 TIME:   0.277 TIME LEFT:  2.00D  GRAD.:    18.727 HEAT: -1108.176
 CYCLE:    29 TIME:   0.789 TIME LEFT:  2.00D  GRAD.:    25.200 HEAT: -1108.238
 CYCLE:    30 TIME:   0.281 TIME LEFT:  2.00D  GRAD.:    13.614 HEAT: -1108.518
 CYCLE:    31 TIME:   0.535 TIME LEFT:  2.00D  GRAD.:    25.366 HEAT: -1108.569
 CYCLE:    32 TIME:   0.285 TIME LEFT:  2.00D  GRAD.:    13.722 HEAT: -1108.834
 CYCLE:    33 TIME:   0.512 TIME LEFT:  2.00D  GRAD.:    24.460 HEAT: -1108.877
 CYCLE:    34 TIME:   0.285 TIME LEFT:  2.00D  GRAD.:    11.791 HEAT: -1109.141
 CYCLE:    35 TIME:   0.523 TIME LEFT:  2.00D  GRAD.:    22.106 HEAT: -1109.196
 CYCLE:    36 TIME:   0.281 TIME LEFT:  2.00D  GRAD.:    11.450 HEAT: -1109.433
 CYCLE:    37 TIME:   0.309 TIME LEFT:  2.00D  GRAD.:    32.787 HEAT: -1109.458
 CYCLE:    38 TIME:   0.285 TIME LEFT:  2.00D  GRAD.:    16.660 HEAT: -1109.958
 CYCLE:    39 TIME:   0.793 TIME LEFT:  2.00D  GRAD.:    22.564 HEAT: -1109.981
 CYCLE:    40 TIME:   0.305 TIME LEFT:  2.00D  GRAD.:    12.396 HEAT: -1110.202
 CYCLE:    41 TIME:   0.531 TIME LEFT:  2.00D  GRAD.:    13.896 HEAT: -1110.261
 CYCLE:    42 TIME:   0.297 TIME LEFT:  2.00D  GRAD.:     7.743 HEAT: -1110.390
 CYCLE:    43 TIME:   0.281 TIME LEFT:  2.00D  GRAD.:    21.774 HEAT: -1110.468
 CYCLE:    44 TIME:   0.281 TIME LEFT:  2.00D  GRAD.:    11.316 HEAT: -1110.728
 CYCLE:    45 TIME:   0.773 TIME LEFT:  2.00D  GRAD.:    15.613 HEAT: -1110.762
 CYCLE:    46 TIME:   0.297 TIME LEFT:  2.00D  GRAD.:     8.671 HEAT: -1110.885
 CYCLE:    47 TIME:   0.285 TIME LEFT:  2.00D  GRAD.:    18.002 HEAT: -1110.926
 CYCLE:    48 TIME:   0.277 TIME LEFT:  2.00D  GRAD.:     9.486 HEAT: -1111.102
 CYCLE:    49 TIME:   0.531 TIME LEFT:  2.00D  GRAD.:    20.327 HEAT: -1111.107
 CYCLE:    50 TIME:   0.277 TIME LEFT:  2.00D  GRAD.:     8.388 HEAT: -1111.307
 CYCLE:    51 TIME:   0.762 TIME LEFT:  2.00D  GRAD.:    10.295 HEAT: -1111.340
 CYCLE:    52 TIME:   0.281 TIME LEFT:  2.00D  GRAD.:     5.937 HEAT: -1111.412
 CYCLE:    53 TIME:   0.285 TIME LEFT:  2.00D  GRAD.:    13.851 HEAT: -1111.478
 CYCLE:    54 TIME:   0.281 TIME LEFT:  2.00D  GRAD.:     8.562 HEAT: -1111.658
 CYCLE:    55 TIME:   0.289 TIME LEFT:  2.00D  GRAD.:    32.604 HEAT: -1111.664
 CYCLE:    56 TIME:   0.289 TIME LEFT:  2.00D  GRAD.:    19.340 HEAT: -1112.110
 CYCLE:    57 TIME:   1.012 TIME LEFT:  2.00D  GRAD.:     7.061 HEAT: -1112.212
 CYCLE:    58 TIME:   0.301 TIME LEFT:  2.00D  GRAD.:    10.996 HEAT: -1112.251
 CYCLE:    59 TIME:   0.289 TIME LEFT:  2.00D  GRAD.:     5.826 HEAT: -1112.337
 CYCLE:    60 TIME:   0.281 TIME LEFT:  2.00D  GRAD.:    14.591 HEAT: -1112.409
 CYCLE:    61 TIME:   0.293 TIME LEFT:  2.00D  GRAD.:     9.719 HEAT: -1112.610
 CYCLE:    62 TIME:   0.793 TIME LEFT:  2.00D  GRAD.:    17.296 HEAT: -1112.614
 CYCLE:    63 TIME:   0.293 TIME LEFT:  2.00D  GRAD.:    11.383 HEAT: -1112.740
 CYCLE:    64 TIME:   0.527 TIME LEFT:  2.00D  GRAD.:    12.176 HEAT: -1112.764
 CYCLE:    65 TIME:   0.297 TIME LEFT:  2.00D  GRAD.:     8.782 HEAT: -1112.841
 CYCLE:    66 TIME:   0.273 TIME LEFT:  2.00D  GRAD.:    15.827 HEAT: -1112.847
 CYCLE:    67 TIME:   0.285 TIME LEFT:  2.00D  GRAD.:     9.408 HEAT: -1112.974
 CYCLE:    68 TIME:   0.758 TIME LEFT:  2.00D  GRAD.:     5.883 HEAT: -1113.005
 CYCLE:    69 TIME:   0.414 TIME LEFT:  2.00D  GRAD.:     5.297 HEAT: -1113.032
 CYCLE:    70 TIME:   0.293 TIME LEFT:  2.00D  GRAD.:     4.738 HEAT: -1113.071
 CYCLE:    71 TIME:   0.289 TIME LEFT:  2.00D  GRAD.:     5.650 HEAT: -1113.121
 CYCLE:    72 TIME:   0.270 TIME LEFT:  2.00D  GRAD.:     5.758 HEAT: -1113.196
 CYCLE:    73 TIME:   0.289 TIME LEFT:  2.00D  GRAD.:     9.618 HEAT: -1113.284
 CYCLE:    74 TIME:   0.289 TIME LEFT:  2.00D  GRAD.:     9.468 HEAT: -1113.425
 CYCLE:    75 TIME:   0.312 TIME LEFT:  2.00D  GRAD.:    18.532 HEAT: -1113.531
 CYCLE:    76 TIME:   0.289 TIME LEFT:  2.00D  GRAD.:    14.917 HEAT: -1113.752
 CYCLE:    77 TIME:   1.027 TIME LEFT:  2.00D  GRAD.:     7.879 HEAT: -1113.815
 CYCLE:    78 TIME:   0.312 TIME LEFT:  2.00D  GRAD.:     8.776 HEAT: -1113.836
 CYCLE:    79 TIME:   0.270 TIME LEFT:  2.00D  GRAD.:     7.403 HEAT: -1113.870
 CYCLE:    80 TIME:   0.273 TIME LEFT:  2.00D  GRAD.:     8.563 HEAT: -1113.903
 CYCLE:    81 TIME:   0.293 TIME LEFT:  2.00D  GRAD.:     8.040 HEAT: -1113.949
 CYCLE:    82 TIME:   0.277 TIME LEFT:  2.00D  GRAD.:    11.676 HEAT: -1113.981
 CYCLE:    83 TIME:   0.289 TIME LEFT:  2.00D  GRAD.:     8.442 HEAT: -1114.060
 CYCLE:    84 TIME:   0.316 TIME LEFT:  2.00D  GRAD.:    17.891 HEAT: -1114.065
 CYCLE:    85 TIME:   0.324 TIME LEFT:  2.00D  GRAD.:    13.650 HEAT: -1114.182
 CYCLE:    86 TIME:   0.770 TIME LEFT:  2.00D  GRAD.:     8.149 HEAT: -1114.229
 CYCLE:    87 TIME:   0.316 TIME LEFT:  2.00D  GRAD.:     9.880 HEAT: -1114.244
 CYCLE:    88 TIME:   0.289 TIME LEFT:  2.00D  GRAD.:     6.562 HEAT: -1114.283
 CYCLE:    89 TIME:   0.270 TIME LEFT:  2.00D  GRAD.:    10.366 HEAT: -1114.303
 CYCLE:    90 TIME:   0.281 TIME LEFT:  2.00D  GRAD.:     7.888 HEAT: -1114.353
 CYCLE:    91 TIME:   0.289 TIME LEFT:  2.00D  GRAD.:    15.550 HEAT: -1114.356
 CYCLE:    92 TIME:   0.289 TIME LEFT:  2.00D  GRAD.:    10.884 HEAT: -1114.440
 CYCLE:    93 TIME:   0.762 TIME LEFT:  2.00D  GRAD.:     7.238 HEAT: -1114.466
 CYCLE:    94 TIME:   0.277 TIME LEFT:  2.00D  GRAD.:     4.883 HEAT: -1114.490
 CYCLE:    95 TIME:   0.285 TIME LEFT:  2.00D  GRAD.:     8.692 HEAT: -1114.504
 CYCLE:    96 TIME:   0.289 TIME LEFT:  2.00D  GRAD.:     3.881 HEAT: -1114.544
 CYCLE:    97 TIME:   0.285 TIME LEFT:  2.00D  GRAD.:    11.823 HEAT: -1114.564
 CYCLE:    98 TIME:   0.285 TIME LEFT:  2.00D  GRAD.:     5.191 HEAT: -1114.645
 CYCLE:    99 TIME:   1.012 TIME LEFT:  2.00D  GRAD.:     4.994 HEAT: -1114.655
 CYCLE:   100 TIME:   0.270 TIME LEFT:  2.00D  GRAD.:     3.303 HEAT: -1114.670
 CYCLE:   101 TIME:   0.293 TIME LEFT:  2.00D  GRAD.:     3.884 HEAT: -1114.687
 CYCLE:   102 TIME:   0.281 TIME LEFT:  2.00D  GRAD.:     3.523 HEAT: -1114.715
 CYCLE:   103 TIME:   0.289 TIME LEFT:  2.00D  GRAD.:     4.906 HEAT: -1114.765
 CYCLE:   104 TIME:   0.285 TIME LEFT:  2.00D  GRAD.:     7.414 HEAT: -1114.830
 CYCLE:   105 TIME:   0.301 TIME LEFT:  2.00D  GRAD.:     6.517 HEAT: -1114.934
 CYCLE:   106 TIME:   0.305 TIME LEFT:  2.00D  GRAD.:    17.227 HEAT: -1115.003
 CYCLE:   107 TIME:   0.289 TIME LEFT:  2.00D  GRAD.:     8.230 HEAT: -1115.198
 CYCLE:   108 TIME:   1.277 TIME LEFT:  2.00D  GRAD.:     7.087 HEAT: -1115.212
 CYCLE:   109 TIME:   0.281 TIME LEFT:  2.00D  GRAD.:     4.780 HEAT: -1115.233
 CYCLE:   110 TIME:   0.289 TIME LEFT:  2.00D  GRAD.:     6.458 HEAT: -1115.248
 CYCLE:   111 TIME:   0.293 TIME LEFT:  2.00D  GRAD.:     4.048 HEAT: -1115.278
 CYCLE:   112 TIME:   0.285 TIME LEFT:  2.00D  GRAD.:     8.751 HEAT: -1115.290
 CYCLE:   113 TIME:   0.297 TIME LEFT:  2.00D  GRAD.:     4.709 HEAT: -1115.338
 CYCLE:   114 TIME:   0.750 TIME LEFT:  2.00D  GRAD.:     4.945 HEAT: -1115.345
 CYCLE:   115 TIME:   0.277 TIME LEFT:  2.00D  GRAD.:     2.835 HEAT: -1115.359
 CYCLE:   116 TIME:   0.277 TIME LEFT:  2.00D  GRAD.:     4.112 HEAT: -1115.372
 CYCLE:   117 TIME:   0.289 TIME LEFT:  2.00D  GRAD.:     2.964 HEAT: -1115.397
 CYCLE:   118 TIME:   0.293 TIME LEFT:  2.00D  GRAD.:     6.152 HEAT: -1115.433
 CYCLE:   119 TIME:   0.281 TIME LEFT:  2.00D  GRAD.:     5.098 HEAT: -1115.500
 CYCLE:   120 TIME:   0.305 TIME LEFT:  2.00D  GRAD.:    13.164 HEAT: -1115.572
 CYCLE:   121 TIME:   0.301 TIME LEFT:  2.00D  GRAD.:    10.698 HEAT: -1115.757
 CYCLE:   122 TIME:   1.270 TIME LEFT:  2.00D  GRAD.:     5.201 HEAT: -1115.791
 CYCLE:   123 TIME:   0.281 TIME LEFT:  2.00D  GRAD.:     8.762 HEAT: -1115.795
 CYCLE:   124 TIME:   0.293 TIME LEFT:  2.00D  GRAD.:     5.168 HEAT: -1115.827
 CYCLE:   125 TIME:   0.508 TIME LEFT:  2.00D  GRAD.:     6.748 HEAT: -1115.832
 CYCLE:   126 TIME:   0.289 TIME LEFT:  2.00D  GRAD.:     3.948 HEAT: -1115.854
 CYCLE:   127 TIME:   0.281 TIME LEFT:  2.00D  GRAD.:     5.853 HEAT: -1115.867
 CYCLE:   128 TIME:   0.297 TIME LEFT:  2.00D  GRAD.:     4.697 HEAT: -1115.891
 CYCLE:   129 TIME:   0.293 TIME LEFT:  2.00D  GRAD.:     8.257 HEAT: -1115.902
 CYCLE:   130 TIME:   0.312 TIME LEFT:  2.00D  GRAD.:     5.834 HEAT: -1115.942
 CYCLE:   131 TIME:   0.754 TIME LEFT:  2.00D  GRAD.:     4.680 HEAT: -1115.951
 CYCLE:   132 TIME:   0.277 TIME LEFT:  2.00D  GRAD.:     3.159 HEAT: -1115.963
 CYCLE:   133 TIME:   0.285 TIME LEFT:  2.00D  GRAD.:     4.826 HEAT: -1115.973
 CYCLE:   134 TIME:   0.273 TIME LEFT:  2.00D  GRAD.:     3.240 HEAT: -1115.996
 CYCLE:   135 TIME:   0.285 TIME LEFT:  2.00D  GRAD.:     8.096 HEAT: -1116.021
 CYCLE:   136 TIME:   0.285 TIME LEFT:  2.00D  GRAD.:     4.926 HEAT: -1116.088
 CYCLE:   137 TIME:   0.312 TIME LEFT:  2.00D  GRAD.:    16.692 HEAT: -1116.121
 CYCLE:   138 TIME:   0.301 TIME LEFT:  2.00D  GRAD.:     8.096 HEAT: -1116.288
 CYCLE:   139 TIME:   1.352 TIME LEFT:  2.00D  GRAD.:     7.156 HEAT: -1116.300
 CYCLE:   140 TIME:   0.312 TIME LEFT:  2.00D  GRAD.:     6.483 HEAT: -1116.313
 CYCLE:   141 TIME:   0.273 TIME LEFT:  2.00D  GRAD.:     6.571 HEAT: -1116.323
 CYCLE:   142 TIME:   0.293 TIME LEFT:  2.00D  GRAD.:     4.954 HEAT: -1116.340
 CYCLE:   143 TIME:   0.277 TIME LEFT:  2.00D  GRAD.:     8.792 HEAT: -1116.344
 CYCLE:   144 TIME:   0.281 TIME LEFT:  2.00D  GRAD.:     4.275 HEAT: -1116.376
 CYCLE:   145 TIME:   0.727 TIME LEFT:  2.00D  GRAD.:     3.630 HEAT: -1116.382
 CYCLE:   146 TIME:   0.285 TIME LEFT:  2.00D  GRAD.:     2.119 HEAT: -1116.390
 CYCLE:   147 TIME:   0.320 TIME LEFT:  2.00D  GRAD.:     8.381 HEAT: -1116.524
 CYCLE:   148 TIME:   0.305 TIME LEFT:  2.00D  GRAD.:    10.838 HEAT: -1116.789
 CYCLE:   149 TIME:   0.312 TIME LEFT:  2.00D  GRAD.:    26.439 HEAT: -1117.131
 CYCLE:   150 TIME:   0.336 TIME LEFT:  2.00D  GRAD.:    39.084 HEAT: -1117.404
 CYCLE:   151 TIME:   0.324 TIME LEFT:  2.00D  GRAD.:    49.610 HEAT: -1117.467
 CYCLE:   152 TIME:   1.172 TIME LEFT:  2.00D  GRAD.:    39.159 HEAT: -1117.694
 CYCLE:   153 TIME:   0.316 TIME LEFT:  2.00D  GRAD.:    29.849 HEAT: -1117.908
 CYCLE:   154 TIME:   0.590 TIME LEFT:  2.00D  GRAD.:    16.070 HEAT: -1118.119
 CYCLE:   155 TIME:   0.555 TIME LEFT:  2.00D  GRAD.:    11.187 HEAT: -1118.177
 CYCLE:   156 TIME:   0.312 TIME LEFT:  2.00D  GRAD.:    10.432 HEAT: -1118.199
 CYCLE:   157 TIME:   0.324 TIME LEFT:  2.00D  GRAD.:    13.317 HEAT: -1118.211
 CYCLE:   158 TIME:   0.301 TIME LEFT:  2.00D  GRAD.:    10.684 HEAT: -1118.238
 CYCLE:   159 TIME:   0.293 TIME LEFT:  2.00D  GRAD.:    14.263 HEAT: -1118.239
 CYCLE:   160 TIME:   0.332 TIME LEFT:  2.00D  GRAD.:     9.858 HEAT: -1118.279
 CYCLE:   161 TIME:   0.539 TIME LEFT:  2.00D  GRAD.:    10.285 HEAT: -1118.291
 CYCLE:   162 TIME:   0.281 TIME LEFT:  2.00D  GRAD.:     6.289 HEAT: -1118.317
 CYCLE:   163 TIME:   0.547 TIME LEFT:  2.00D  GRAD.:     6.475 HEAT: -1118.327
 CYCLE:   164 TIME:   0.297 TIME LEFT:  2.00D  GRAD.:     3.996 HEAT: -1118.343
 CYCLE:   165 TIME:   0.285 TIME LEFT:  2.00D  GRAD.:     7.485 HEAT: -1118.350
 CYCLE:   166 TIME:   0.281 TIME LEFT:  2.00D  GRAD.:     4.497 HEAT: -1118.374
 CYCLE:   167 TIME:   0.301 TIME LEFT:  2.00D  GRAD.:    10.203 HEAT: -1118.377
 CYCLE:   168 TIME:   0.281 TIME LEFT:  2.00D  GRAD.:     6.021 HEAT: -1118.412
 CYCLE:   169 TIME:   0.742 TIME LEFT:  2.00D  GRAD.:     6.035 HEAT: -1118.419
 CYCLE:   170 TIME:   0.277 TIME LEFT:  2.00D  GRAD.:     2.229 HEAT: -1118.431
 CYCLE:   171 TIME:   0.270 TIME LEFT:  2.00D  GRAD.:     6.398 HEAT: -1118.439
 CYCLE:   172 TIME:   0.266 TIME LEFT:  2.00D  GRAD.:     2.665 HEAT: -1118.461
 CYCLE:   173 TIME:   0.305 TIME LEFT:  2.00D  GRAD.:     7.641 HEAT: -1118.477
 CYCLE:   174 TIME:   0.277 TIME LEFT:  2.00D  GRAD.:     4.755 HEAT: -1118.515
 CYCLE:   175 TIME:   0.285 TIME LEFT:  2.00D  GRAD.:    13.350 HEAT: -1118.525
 CYCLE:   176 TIME:   0.277 TIME LEFT:  2.00D  GRAD.:     7.890 HEAT: -1118.614
 CYCLE:   177 TIME:   1.047 TIME LEFT:  2.00D  GRAD.:     5.622 HEAT: -1118.629
 CYCLE:   178 TIME:   0.273 TIME LEFT:  2.00D  GRAD.:     4.155 HEAT: -1118.639
 CYCLE:   179 TIME:   0.285 TIME LEFT:  2.00D  GRAD.:     5.083 HEAT: -1118.652
 CYCLE:   180 TIME:   0.285 TIME LEFT:  2.00D  GRAD.:     5.210 HEAT: -1118.670
 CYCLE:   181 TIME:   0.273 TIME LEFT:  2.00D  GRAD.:     5.886 HEAT: -1118.696
 CYCLE:   182 TIME:   0.281 TIME LEFT:  2.00D  GRAD.:     7.628 HEAT: -1118.726
 CYCLE:   183 TIME:   0.273 TIME LEFT:  2.00D  GRAD.:     8.498 HEAT: -1118.778
 CYCLE:   184 TIME:   0.301 TIME LEFT:  2.00D  GRAD.:    14.016 HEAT: -1118.814
 CYCLE:   185 TIME:   0.297 TIME LEFT:  2.00D  GRAD.:    10.507 HEAT: -1118.909
 CYCLE:   186 TIME:   1.000 TIME LEFT:  2.00D  GRAD.:     7.542 HEAT: -1118.934
 CYCLE:   187 TIME:   0.289 TIME LEFT:  2.00D  GRAD.:     9.213 HEAT: -1118.935
 CYCLE:   188 TIME:   0.285 TIME LEFT:  2.00D  GRAD.:     6.859 HEAT: -1118.957
 CYCLE:   189 TIME:   0.512 TIME LEFT:  2.00D  GRAD.:     6.579 HEAT: -1118.965
 CYCLE:   190 TIME:   0.277 TIME LEFT:  2.00D  GRAD.:     4.556 HEAT: -1118.977
 CYCLE:   191 TIME:   0.289 TIME LEFT:  2.00D  GRAD.:     7.785 HEAT: -1118.983
 CYCLE:   192 TIME:   0.273 TIME LEFT:  2.00D  GRAD.:     3.699 HEAT: -1119.005
 CYCLE:   193 TIME:   0.285 TIME LEFT:  2.00D  GRAD.:    10.466 HEAT: -1119.005
 CYCLE:   194 TIME:   0.273 TIME LEFT:  2.00D  GRAD.:     3.999 HEAT: -1119.040
 CYCLE:   195 TIME:   1.016 TIME LEFT:  2.00D  GRAD.:     3.327 HEAT: -1119.045
 CYCLE:   196 TIME:   0.293 TIME LEFT:  2.00D  GRAD.:     1.701 HEAT: -1119.052
 CYCLE:   197 TIME:   0.312 TIME LEFT:  2.00D  GRAD.:     7.653 HEAT: -1119.163
 CYCLE:   198 TIME:   0.301 TIME LEFT:  2.00D  GRAD.:    12.228 HEAT: -1119.368
 CYCLE:   199 TIME:   0.301 TIME LEFT:  2.00D  GRAD.:    17.124 HEAT: -1119.603
 CYCLE:   200 TIME:   0.578 TIME LEFT:  2.00D  GRAD.:    28.079 HEAT: -1119.607
 CYCLE:   201 TIME:   0.332 TIME LEFT:  2.00D  GRAD.:    28.636 HEAT: -1119.664
 CYCLE:   202 TIME:   0.875 TIME LEFT:  2.00D  GRAD.:    27.424 HEAT: -1119.714
 CYCLE:   203 TIME:   0.531 TIME LEFT:  2.00D  GRAD.:    10.967 HEAT: -1119.941
 CYCLE:   204 TIME:   0.539 TIME LEFT:  2.00D  GRAD.:     8.592 HEAT: -1119.973
 CYCLE:   205 TIME:   0.324 TIME LEFT:  2.00D  GRAD.:     8.804 HEAT: -1119.987
 CYCLE:   206 TIME:   0.293 TIME LEFT:  2.00D  GRAD.:     8.656 HEAT: -1120.014
 CYCLE:   207 TIME:   0.277 TIME LEFT:  2.00D  GRAD.:    11.191 HEAT: -1120.018
 CYCLE:   208 TIME:   0.285 TIME LEFT:  2.00D  GRAD.:    10.835 HEAT: -1120.052
 CYCLE:   209 TIME:   0.273 TIME LEFT:  2.00D  GRAD.:    10.625 HEAT: -1120.065
 CYCLE:   210 TIME:   0.523 TIME LEFT:  2.00D  GRAD.:     7.860 HEAT: -1120.093
 CYCLE:   211 TIME:   0.367 TIME LEFT:  2.00D  GRAD.:     8.367 HEAT: -1120.099
 CYCLE:   212 TIME:   0.289 TIME LEFT:  2.00D  GRAD.:     5.003 HEAT: -1120.130
 CYCLE:   213 TIME:   0.523 TIME LEFT:  2.00D  GRAD.:     6.739 HEAT: -1120.134
 CYCLE:   214 TIME:   0.352 TIME LEFT:  2.00D  GRAD.:     4.122 HEAT: -1120.154
 CYCLE:   215 TIME:   0.312 TIME LEFT:  2.00D  GRAD.:     6.312 HEAT: -1120.162
 CYCLE:   216 TIME:   0.309 TIME LEFT:  2.00D  GRAD.:     4.679 HEAT: -1120.184
 CYCLE:   217 TIME:   0.293 TIME LEFT:  2.00D  GRAD.:     8.435 HEAT: -1120.193
 CYCLE:   218 TIME:   0.277 TIME LEFT:  2.00D  GRAD.:     6.944 HEAT: -1120.222
 CYCLE:   219 TIME:   0.621 TIME LEFT:  2.00D  GRAD.:     8.864 HEAT: -1120.227
 CYCLE:   220 TIME:   0.289 TIME LEFT:  2.00D  GRAD.:     5.083 HEAT: -1120.253
 CYCLE:   221 TIME:   0.762 TIME LEFT:  2.00D  GRAD.:     3.895 HEAT: -1120.261
 CYCLE:   222 TIME:   0.289 TIME LEFT:  2.00D  GRAD.:     2.066 HEAT: -1120.268
 CYCLE:   223 TIME:   0.301 TIME LEFT:  2.00D  GRAD.:     7.392 HEAT: -1120.365
 CYCLE:   224 TIME:   0.320 TIME LEFT:  2.00D  GRAD.:    16.349 HEAT: -1120.519
 CYCLE:   225 TIME:   0.312 TIME LEFT:  2.00D  GRAD.:    29.023 HEAT: -1120.624
 CYCLE:   226 TIME:   1.066 TIME LEFT:  2.00D  GRAD.:    25.590 HEAT: -1120.635
 CYCLE:   227 TIME:   0.301 TIME LEFT:  2.00D  GRAD.:    26.222 HEAT: -1120.655
 CYCLE:   228 TIME:   0.516 TIME LEFT:  2.00D  GRAD.:    10.670 HEAT: -1120.831
 CYCLE:   229 TIME:   0.562 TIME LEFT:  2.00D  GRAD.:     7.189 HEAT: -1120.864
 CYCLE:   230 TIME:   0.406 TIME LEFT:  2.00D  GRAD.:     7.957 HEAT: -1120.876
 CYCLE:   231 TIME:   0.348 TIME LEFT:  2.00D  GRAD.:     9.173 HEAT: -1120.885
 CYCLE:   232 TIME:   0.355 TIME LEFT:  2.00D  GRAD.:     4.665 HEAT: -1120.915
 CYCLE:   233 TIME:   0.344 TIME LEFT:  2.00D  GRAD.:     7.960 HEAT: -1120.926
 CYCLE:   234 TIME:   0.328 TIME LEFT:  2.00D  GRAD.:     8.182 HEAT: -1120.945
 CYCLE:   235 TIME:   0.344 TIME LEFT:  2.00D  GRAD.:    10.971 HEAT: -1120.961
 CYCLE:   236 TIME:   0.324 TIME LEFT:  2.00D  GRAD.:     8.710 HEAT: -1120.998
 CYCLE:   237 TIME:   0.926 TIME LEFT:  2.00D  GRAD.:     6.895 HEAT: -1121.016
 CYCLE:   238 TIME:   0.340 TIME LEFT:  2.00D  GRAD.:     4.650 HEAT: -1121.030
 CYCLE:   239 TIME:   0.340 TIME LEFT:  2.00D  GRAD.:     8.461 HEAT: -1121.034
 CYCLE:   240 TIME:   0.383 TIME LEFT:  2.00D  GRAD.:     4.679 HEAT: -1121.058
 CYCLE:   241 TIME:   0.352 TIME LEFT:  2.00D  GRAD.:     8.694 HEAT: -1121.066
 CYCLE:   242 TIME:   0.359 TIME LEFT:  2.00D  GRAD.:     3.972 HEAT: -1121.100
 CYCLE:   243 TIME:   1.227 TIME LEFT:  2.00D  GRAD.:     3.762 HEAT: -1121.104
 CYCLE:   244 TIME:   0.316 TIME LEFT:  2.00D  GRAD.:     2.317 HEAT: -1121.111
 CYCLE:   245 TIME:   0.391 TIME LEFT:  2.00D  GRAD.:     8.081 HEAT: -1121.200
 CYCLE:   246 TIME:   0.371 TIME LEFT:  2.00D  GRAD.:    13.564 HEAT: -1121.316
 CYCLE:   247 TIME:   0.363 TIME LEFT:  2.00D  GRAD.:    16.944 HEAT: -1121.424
 CYCLE:   248 TIME:   1.598 TIME LEFT:  2.00D  GRAD.:    15.296 HEAT: -1121.443
 CYCLE:   249 TIME:   0.352 TIME LEFT:  2.00D  GRAD.:    13.759 HEAT: -1121.457
 CYCLE:   250 TIME:   0.398 TIME LEFT:  2.00D  GRAD.:    13.691 HEAT: -1121.473
 CYCLE:   251 TIME:   0.348 TIME LEFT:  2.00D  GRAD.:    13.059 HEAT: -1121.487
 CYCLE:   252 TIME:   0.680 TIME LEFT:  2.00D  GRAD.:     6.104 HEAT: -1121.530
 CYCLE:   253 TIME:   0.672 TIME LEFT:  2.00D  GRAD.:     4.541 HEAT: -1121.539
 CYCLE:   254 TIME:   0.344 TIME LEFT:  2.00D  GRAD.:     2.353 HEAT: -1121.549
 CYCLE:   255 TIME:   0.352 TIME LEFT:  2.00D  GRAD.:     5.211 HEAT: -1121.557
 CYCLE:   256 TIME:   0.340 TIME LEFT:  2.00D  GRAD.:     5.767 HEAT: -1121.573
 CYCLE:   257 TIME:   0.344 TIME LEFT:  2.00D  GRAD.:     4.119 HEAT: -1121.602
 CYCLE:   258 TIME:   0.371 TIME LEFT:  2.00D  GRAD.:     5.834 HEAT: -1121.643
 CYCLE:   259 TIME:   0.391 TIME LEFT:  2.00D  GRAD.:    10.513 HEAT: -1121.684
 CYCLE:   260 TIME:   0.348 TIME LEFT:  2.00D  GRAD.:     9.702 HEAT: -1121.765
 CYCLE:   261 TIME:   0.367 TIME LEFT:  2.00D  GRAD.:     9.311 HEAT: -1121.858
 CYCLE:   262 TIME:   0.379 TIME LEFT:  2.00D  GRAD.:    17.001 HEAT: -1121.923
 CYCLE:   263 TIME:   0.953 TIME LEFT:  2.00D  GRAD.:    16.672 HEAT: -1121.935
 CYCLE:   264 TIME:   0.484 TIME LEFT:  2.00D  GRAD.:    15.893 HEAT: -1121.959
 CYCLE:   265 TIME:   0.363 TIME LEFT:  2.00D  GRAD.:    15.868 HEAT: -1122.001
 CYCLE:   266 TIME:   0.910 TIME LEFT:  2.00D  GRAD.:     9.416 HEAT: -1122.059
 CYCLE:   267 TIME:   0.625 TIME LEFT:  2.00D  GRAD.:     5.376 HEAT: -1122.083
 CYCLE:   268 TIME:   0.367 TIME LEFT:  2.00D  GRAD.:     3.757 HEAT: -1122.094
 CYCLE:   269 TIME:   0.375 TIME LEFT:  2.00D  GRAD.:     5.781 HEAT: -1122.102
 CYCLE:   270 TIME:   0.352 TIME LEFT:  2.00D  GRAD.:     6.746 HEAT: -1122.108
 CYCLE:   271 TIME:   0.363 TIME LEFT:  2.00D  GRAD.:     4.868 HEAT: -1122.126
 CYCLE:   272 TIME:   0.324 TIME LEFT:  2.00D  GRAD.:     3.213 HEAT: -1122.144
 CYCLE:   273 TIME:   1.344 TIME LEFT:  2.00D  GRAD.:     4.896 HEAT: -1122.146
 CYCLE:   274 TIME:   0.359 TIME LEFT:  2.00D  GRAD.:     2.077 HEAT: -1122.156
 CYCLE:   275 TIME:   0.359 TIME LEFT:  2.00D  GRAD.:     2.433 HEAT: -1122.163
 CYCLE:   276 TIME:   0.375 TIME LEFT:  2.00D  GRAD.:     1.674 HEAT: -1122.175
 CYCLE:   277 TIME:   0.473 TIME LEFT:  2.00D  GRAD.:     6.154 HEAT: -1122.185
 CYCLE:   278 TIME:   0.488 TIME LEFT:  2.00D  GRAD.:     2.529 HEAT: -1122.213
 CYCLE:   279 TIME:   0.367 TIME LEFT:  2.00D  GRAD.:     3.934 HEAT: -1122.242
 CYCLE:   280 TIME:   0.348 TIME LEFT:  2.00D  GRAD.:     3.748 HEAT: -1122.289
 CYCLE:   281 TIME:   0.387 TIME LEFT:  2.00D  GRAD.:    13.981 HEAT: -1122.304
 CYCLE:   282 TIME:   0.391 TIME LEFT:  2.00D  GRAD.:     6.986 HEAT: -1122.420
 CYCLE:   283 TIME:   0.371 TIME LEFT:  2.00D  GRAD.:    11.458 HEAT: -1122.475
 CYCLE:   284 TIME:   0.715 TIME LEFT:  2.00D  GRAD.:    16.556 HEAT: -1122.486
 CYCLE:   285 TIME:   1.219 TIME LEFT:  2.00D  GRAD.:     9.067 HEAT: -1122.545
 CYCLE:   286 TIME:   0.367 TIME LEFT:  2.00D  GRAD.:     6.157 HEAT: -1122.575
 CYCLE:   287 TIME:   0.332 TIME LEFT:  2.00D  GRAD.:     5.788 HEAT: -1122.589
 CYCLE:   288 TIME:   0.344 TIME LEFT:  2.00D  GRAD.:     5.008 HEAT: -1122.608
 CYCLE:   289 TIME:   0.348 TIME LEFT:  2.00D  GRAD.:     6.177 HEAT: -1122.620
 CYCLE:   290 TIME:   0.367 TIME LEFT:  2.00D  GRAD.:     4.684 HEAT: -1122.648
 CYCLE:   291 TIME:   0.336 TIME LEFT:  2.00D  GRAD.:     5.512 HEAT: -1122.681
 CYCLE:   292 TIME:   0.367 TIME LEFT:  2.00D  GRAD.:     5.321 HEAT: -1122.726
 CYCLE:   293 TIME:   0.367 TIME LEFT:  2.00D  GRAD.:     6.064 HEAT: -1122.780
 CYCLE:   294 TIME:   0.363 TIME LEFT:  2.00D  GRAD.:     8.444 HEAT: -1122.833
 CYCLE:   295 TIME:   0.371 TIME LEFT:  2.00D  GRAD.:     9.210 HEAT: -1122.901
 CYCLE:   296 TIME:   0.387 TIME LEFT:  2.00D  GRAD.:    10.175 HEAT: -1122.969
 CYCLE:   297 TIME:   0.379 TIME LEFT:  2.00D  GRAD.:    13.686 HEAT: -1122.987
 CYCLE:   298 TIME:   0.664 TIME LEFT:  2.00D  GRAD.:    14.364 HEAT: -1123.035
 CYCLE:   299 TIME:   0.371 TIME LEFT:  2.00D  GRAD.:    10.720 HEAT: -1123.101
 CYCLE:   300 TIME:   0.348 TIME LEFT:  2.00D  GRAD.:     9.895 HEAT: -1123.148
 CYCLE:   301 TIME:   0.363 TIME LEFT:  2.00D  GRAD.:    10.255 HEAT: -1123.179
 CYCLE:   302 TIME:   0.371 TIME LEFT:  2.00D  GRAD.:     6.517 HEAT: -1123.250
 CYCLE:   303 TIME:   0.387 TIME LEFT:  2.00D  GRAD.:     8.739 HEAT: -1123.297
 CYCLE:   304 TIME:   0.348 TIME LEFT:  2.00D  GRAD.:     7.510 HEAT: -1123.366
 CYCLE:   305 TIME:   0.367 TIME LEFT:  2.00D  GRAD.:     9.921 HEAT: -1123.421
 CYCLE:   306 TIME:   0.340 TIME LEFT:  2.00D  GRAD.:     8.187 HEAT: -1123.475
 CYCLE:   307 TIME:   0.359 TIME LEFT:  2.00D  GRAD.:     8.439 HEAT: -1123.513
 CYCLE:   308 TIME:   0.344 TIME LEFT:  2.00D  GRAD.:     8.377 HEAT: -1123.563
 CYCLE:   309 TIME:   0.359 TIME LEFT:  2.00D  GRAD.:     6.834 HEAT: -1123.627
 CYCLE:   310 TIME:   0.363 TIME LEFT:  2.00D  GRAD.:     6.555 HEAT: -1123.667
 CYCLE:   311 TIME:   0.352 TIME LEFT:  2.00D  GRAD.:     5.994 HEAT: -1123.701
 CYCLE:   312 TIME:   0.367 TIME LEFT:  2.00D  GRAD.:     5.631 HEAT: -1123.736
 CYCLE:   313 TIME:   0.379 TIME LEFT:  2.00D  GRAD.:     5.609 HEAT: -1123.773
 CYCLE:   314 TIME:   0.352 TIME LEFT:  2.00D  GRAD.:     5.586 HEAT: -1123.809
 CYCLE:   315 TIME:   0.367 TIME LEFT:  2.00D  GRAD.:     5.342 HEAT: -1123.839
 CYCLE:   316 TIME:   0.352 TIME LEFT:  2.00D  GRAD.:     5.163 HEAT: -1123.878
 CYCLE:   317 TIME:   0.367 TIME LEFT:  2.00D  GRAD.:     5.539 HEAT: -1123.913
 CYCLE:   318 TIME:   0.359 TIME LEFT:  2.00D  GRAD.:     6.891 HEAT: -1123.942
 CYCLE:   319 TIME:   0.359 TIME LEFT:  2.00D  GRAD.:     6.176 HEAT: -1123.981
 CYCLE:   320 TIME:   0.359 TIME LEFT:  2.00D  GRAD.:     7.072 HEAT: -1124.025
 CYCLE:   321 TIME:   0.395 TIME LEFT:  2.00D  GRAD.:     8.280 HEAT: -1124.070
 CYCLE:   322 TIME:   0.363 TIME LEFT:  2.00D  GRAD.:     6.765 HEAT: -1124.119
 CYCLE:   323 TIME:   0.355 TIME LEFT:  2.00D  GRAD.:     7.850 HEAT: -1124.169
 CYCLE:   324 TIME:   0.352 TIME LEFT:  2.00D  GRAD.:     6.379 HEAT: -1124.213
 CYCLE:   325 TIME:   0.379 TIME LEFT:  2.00D  GRAD.:     8.312 HEAT: -1124.249
 CYCLE:   326 TIME:   0.348 TIME LEFT:  2.00D  GRAD.:     6.454 HEAT: -1124.286
 CYCLE:   327 TIME:   0.359 TIME LEFT:  2.00D  GRAD.:     6.537 HEAT: -1124.323
 CYCLE:   328 TIME:   0.379 TIME LEFT:  2.00D  GRAD.:     6.225 HEAT: -1124.359
 CYCLE:   329 TIME:   0.391 TIME LEFT:  2.00D  GRAD.:     6.463 HEAT: -1124.387
 CYCLE:   330 TIME:   0.348 TIME LEFT:  2.00D  GRAD.:     6.011 HEAT: -1124.412
 CYCLE:   331 TIME:   0.355 TIME LEFT:  2.00D  GRAD.:     4.287 HEAT: -1124.434
 CYCLE:   332 TIME:   0.348 TIME LEFT:  2.00D  GRAD.:     4.150 HEAT: -1124.455
 CYCLE:   333 TIME:   0.379 TIME LEFT:  2.00D  GRAD.:     3.729 HEAT: -1124.476
 CYCLE:   334 TIME:   0.375 TIME LEFT:  2.00D  GRAD.:     4.223 HEAT: -1124.498
 CYCLE:   335 TIME:   0.375 TIME LEFT:  2.00D  GRAD.:     6.092 HEAT: -1124.519
 CYCLE:   336 TIME:   0.355 TIME LEFT:  2.00D  GRAD.:     7.459 HEAT: -1124.533
 CYCLE:   337 TIME:   0.355 TIME LEFT:  2.00D  GRAD.:     5.146 HEAT: -1124.564
 CYCLE:   338 TIME:   0.355 TIME LEFT:  2.00D  GRAD.:     5.101 HEAT: -1124.582
 CYCLE:   339 TIME:   0.375 TIME LEFT:  2.00D  GRAD.:     4.759 HEAT: -1124.605
 CYCLE:   340 TIME:   0.355 TIME LEFT:  2.00D  GRAD.:     5.899 HEAT: -1124.627
 CYCLE:   341 TIME:   0.355 TIME LEFT:  2.00D  GRAD.:     7.034 HEAT: -1124.648
 CYCLE:   342 TIME:   0.383 TIME LEFT:  2.00D  GRAD.:     6.023 HEAT: -1124.684
 CYCLE:   343 TIME:   0.371 TIME LEFT:  2.00D  GRAD.:     6.381 HEAT: -1124.717
 CYCLE:   344 TIME:   0.375 TIME LEFT:  2.00D  GRAD.:     8.062 HEAT: -1124.745
 CYCLE:   345 TIME:   0.344 TIME LEFT:  2.00D  GRAD.:     8.819 HEAT: -1124.775
 CYCLE:   346 TIME:   0.379 TIME LEFT:  2.00D  GRAD.:     6.346 HEAT: -1124.817
 CYCLE:   347 TIME:   0.383 TIME LEFT:  2.00D  GRAD.:     5.134 HEAT: -1124.843
 CYCLE:   348 TIME:   0.363 TIME LEFT:  2.00D  GRAD.:     5.252 HEAT: -1124.869
 CYCLE:   349 TIME:   0.371 TIME LEFT:  2.00D  GRAD.:     6.206 HEAT: -1124.894
 CYCLE:   350 TIME:   0.359 TIME LEFT:  2.00D  GRAD.:     7.418 HEAT: -1124.912
 CYCLE:   351 TIME:   0.336 TIME LEFT:  2.00D  GRAD.:     7.050 HEAT: -1124.928
 CYCLE:   352 TIME:   0.406 TIME LEFT:  2.00D  GRAD.:     6.355 HEAT: -1124.951
 CYCLE:   353 TIME:   0.359 TIME LEFT:  2.00D  GRAD.:     5.572 HEAT: -1124.970
 CYCLE:   354 TIME:   0.363 TIME LEFT:  2.00D  GRAD.:     4.989 HEAT: -1124.990
 CYCLE:   355 TIME:   0.363 TIME LEFT:  2.00D  GRAD.:     3.955 HEAT: -1125.008
 CYCLE:   356 TIME:   0.375 TIME LEFT:  2.00D  GRAD.:     3.793 HEAT: -1125.027
 CYCLE:   357 TIME:   0.367 TIME LEFT:  2.00D  GRAD.:     4.099 HEAT: -1125.049
 CYCLE:   358 TIME:   0.375 TIME LEFT:  2.00D  GRAD.:     4.777 HEAT: -1125.067
 CYCLE:   359 TIME:   0.344 TIME LEFT:  2.00D  GRAD.:     3.999 HEAT: -1125.084
 CYCLE:   360 TIME:   0.336 TIME LEFT:  2.00D  GRAD.:     3.360 HEAT: -1125.102
 CYCLE:   361 TIME:   0.398 TIME LEFT:  2.00D  GRAD.:     3.979 HEAT: -1125.118
 CYCLE:   362 TIME:   0.352 TIME LEFT:  2.00D  GRAD.:     5.026 HEAT: -1125.133
 CYCLE:   363 TIME:   0.355 TIME LEFT:  2.00D  GRAD.:     5.270 HEAT: -1125.144
 CYCLE:   364 TIME:   0.348 TIME LEFT:  2.00D  GRAD.:     4.324 HEAT: -1125.159
 CYCLE:   365 TIME:   0.352 TIME LEFT:  2.00D  GRAD.:     3.389 HEAT: -1125.171
 CYCLE:   366 TIME:   0.363 TIME LEFT:  2.00D  GRAD.:     3.141 HEAT: -1125.183
 CYCLE:   367 TIME:   0.363 TIME LEFT:  2.00D  GRAD.:     3.313 HEAT: -1125.197
 CYCLE:   368 TIME:   0.359 TIME LEFT:  2.00D  GRAD.:     3.079 HEAT: -1125.211
 CYCLE:   369 TIME:   0.367 TIME LEFT:  2.00D  GRAD.:     3.843 HEAT: -1125.226
 CYCLE:   370 TIME:   0.340 TIME LEFT:  2.00D  GRAD.:     3.364 HEAT: -1125.243
 CYCLE:   371 TIME:   0.371 TIME LEFT:  2.00D  GRAD.:     3.525 HEAT: -1125.259
 CYCLE:   372 TIME:   0.383 TIME LEFT:  2.00D  GRAD.:     3.390 HEAT: -1125.275
 CYCLE:   373 TIME:   0.352 TIME LEFT:  2.00D  GRAD.:     3.065 HEAT: -1125.291
 CYCLE:   374 TIME:   0.383 TIME LEFT:  2.00D  GRAD.:     3.967 HEAT: -1125.309
 CYCLE:   375 TIME:   0.371 TIME LEFT:  2.00D  GRAD.:     4.035 HEAT: -1125.322
 CYCLE:   376 TIME:   0.336 TIME LEFT:  2.00D  GRAD.:     3.197 HEAT: -1125.337
 CYCLE:   377 TIME:   0.367 TIME LEFT:  2.00D  GRAD.:     2.930 HEAT: -1125.351
 CYCLE:   378 TIME:   0.355 TIME LEFT:  2.00D  GRAD.:     2.986 HEAT: -1125.363
 CYCLE:   379 TIME:   0.371 TIME LEFT:  2.00D  GRAD.:     2.851 HEAT: -1125.374
 CYCLE:   380 TIME:   0.371 TIME LEFT:  2.00D  GRAD.:     3.269 HEAT: -1125.386
 CYCLE:   381 TIME:   0.336 TIME LEFT:  2.00D  GRAD.:     3.136 HEAT: -1125.398
 CYCLE:   382 TIME:   0.355 TIME LEFT:  2.00D  GRAD.:     3.119 HEAT: -1125.412
 CYCLE:   383 TIME:   0.379 TIME LEFT:  2.00D  GRAD.:     3.221 HEAT: -1125.426
 CYCLE:   384 TIME:   0.367 TIME LEFT:  2.00D  GRAD.:     3.322 HEAT: -1125.446
 CYCLE:   385 TIME:   0.375 TIME LEFT:  2.00D  GRAD.:     3.419 HEAT: -1125.464
 CYCLE:   386 TIME:   0.355 TIME LEFT:  2.00D  GRAD.:     3.160 HEAT: -1125.483
 CYCLE:   387 TIME:   0.352 TIME LEFT:  2.00D  GRAD.:     3.665 HEAT: -1125.501
 CYCLE:   388 TIME:   0.371 TIME LEFT:  2.00D  GRAD.:     4.265 HEAT: -1125.518
 CYCLE:   389 TIME:   0.363 TIME LEFT:  2.00D  GRAD.:     3.838 HEAT: -1125.537
 CYCLE:   390 TIME:   0.375 TIME LEFT:  2.00D  GRAD.:     3.798 HEAT: -1125.558
 CYCLE:   391 TIME:   0.379 TIME LEFT:  2.00D  GRAD.:     3.800 HEAT: -1125.577
 CYCLE:   392 TIME:   0.363 TIME LEFT:  2.00D  GRAD.:     3.661 HEAT: -1125.597
 CYCLE:   393 TIME:   0.359 TIME LEFT:  2.00D  GRAD.:     3.883 HEAT: -1125.615
 CYCLE:   394 TIME:   0.375 TIME LEFT:  2.00D  GRAD.:     3.555 HEAT: -1125.630
 CYCLE:   395 TIME:   0.375 TIME LEFT:  2.00D  GRAD.:     3.177 HEAT: -1125.641
 CYCLE:   396 TIME:   0.355 TIME LEFT:  2.00D  GRAD.:     3.903 HEAT: -1125.651
 CYCLE:   397 TIME:   0.355 TIME LEFT:  2.00D  GRAD.:     2.981 HEAT: -1125.662
 CYCLE:   398 TIME:   0.340 TIME LEFT:  2.00D  GRAD.:     2.782 HEAT: -1125.671
 CYCLE:   399 TIME:   0.363 TIME LEFT:  2.00D  GRAD.:     2.640 HEAT: -1125.681
 CYCLE:   400 TIME:   0.355 TIME LEFT:  2.00D  GRAD.:     2.665 HEAT: -1125.692
 CYCLE:   401 TIME:   0.344 TIME LEFT:  2.00D  GRAD.:     2.932 HEAT: -1125.700
 CYCLE:   402 TIME:   0.355 TIME LEFT:  2.00D  GRAD.:     2.634 HEAT: -1125.710
 CYCLE:   403 TIME:   0.379 TIME LEFT:  2.00D  GRAD.:     3.133 HEAT: -1125.721
 CYCLE:   404 TIME:   0.363 TIME LEFT:  2.00D  GRAD.:     2.633 HEAT: -1125.729
 CYCLE:   405 TIME:   0.352 TIME LEFT:  2.00D  GRAD.:     2.452 HEAT: -1125.739
 CYCLE:   406 TIME:   0.367 TIME LEFT:  2.00D  GRAD.:     2.262 HEAT: -1125.749
 CYCLE:   407 TIME:   0.359 TIME LEFT:  2.00D  GRAD.:     2.538 HEAT: -1125.757
 CYCLE:   408 TIME:   0.352 TIME LEFT:  2.00D  GRAD.:     2.425 HEAT: -1125.764
 CYCLE:   409 TIME:   0.383 TIME LEFT:  2.00D  GRAD.:     3.569 HEAT: -1125.768
 CYCLE:   410 TIME:   0.355 TIME LEFT:  2.00D  GRAD.:     2.060 HEAT: -1125.775
 CYCLE:   411 TIME:   0.332 TIME LEFT:  2.00D  GRAD.:     1.888 HEAT: -1125.781
 CYCLE:   412 TIME:   0.367 TIME LEFT:  2.00D  GRAD.:     2.130 HEAT: -1125.789
 CYCLE:   413 TIME:   0.363 TIME LEFT:  2.00D  GRAD.:     1.951 HEAT: -1125.798
 CYCLE:   414 TIME:   0.379 TIME LEFT:  2.00D  GRAD.:     1.696 HEAT: -1125.803
 CYCLE:   415 TIME:   0.348 TIME LEFT:  2.00D  GRAD.:     2.114 HEAT: -1125.810
 CYCLE:   416 TIME:   0.359 TIME LEFT:  2.00D  GRAD.:     2.337 HEAT: -1125.818
 CYCLE:   417 TIME:   0.379 TIME LEFT:  2.00D  GRAD.:     2.068 HEAT: -1125.826
 CYCLE:   418 TIME:   0.363 TIME LEFT:  2.00D  GRAD.:     2.342 HEAT: -1125.835
 CYCLE:   419 TIME:   0.367 TIME LEFT:  2.00D  GRAD.:     2.900 HEAT: -1125.845
 CYCLE:   420 TIME:   0.359 TIME LEFT:  2.00D  GRAD.:     2.842 HEAT: -1125.857
 CYCLE:   421 TIME:   0.371 TIME LEFT:  2.00D  GRAD.:     2.885 HEAT: -1125.870
 CYCLE:   422 TIME:   0.406 TIME LEFT:  2.00D  GRAD.:     3.074 HEAT: -1125.880
 CYCLE:   423 TIME:   0.355 TIME LEFT:  2.00D  GRAD.:     3.223 HEAT: -1125.888
 CYCLE:   424 TIME:   0.367 TIME LEFT:  2.00D  GRAD.:     2.558 HEAT: -1125.897
 CYCLE:   425 TIME:   0.359 TIME LEFT:  2.00D  GRAD.:     2.217 HEAT: -1125.905
 CYCLE:   426 TIME:   0.355 TIME LEFT:  2.00D  GRAD.:     2.187 HEAT: -1125.913
 CYCLE:   427 TIME:   0.348 TIME LEFT:  2.00D  GRAD.:     2.226 HEAT: -1125.921
 CYCLE:   428 TIME:   0.355 TIME LEFT:  2.00D  GRAD.:     2.620 HEAT: -1125.931
 CYCLE:   429 TIME:   0.379 TIME LEFT:  2.00D  GRAD.:     2.707 HEAT: -1125.941
 CYCLE:   430 TIME:   0.363 TIME LEFT:  2.00D  GRAD.:     3.261 HEAT: -1125.950
 CYCLE:   431 TIME:   0.367 TIME LEFT:  2.00D  GRAD.:     3.470 HEAT: -1125.963
 CYCLE:   432 TIME:   0.344 TIME LEFT:  2.00D  GRAD.:     3.722 HEAT: -1125.973
 CYCLE:   433 TIME:   0.340 TIME LEFT:  2.00D  GRAD.:     4.556 HEAT: -1125.985
 CYCLE:   434 TIME:   0.348 TIME LEFT:  2.00D  GRAD.:     3.295 HEAT: -1125.997
 CYCLE:   435 TIME:   0.387 TIME LEFT:  2.00D  GRAD.:     2.698 HEAT: -1126.008
 CYCLE:   436 TIME:   0.359 TIME LEFT:  2.00D  GRAD.:     3.012 HEAT: -1126.019
 CYCLE:   437 TIME:   0.375 TIME LEFT:  2.00D  GRAD.:     2.748 HEAT: -1126.029
 CYCLE:   438 TIME:   0.375 TIME LEFT:  2.00D  GRAD.:     3.639 HEAT: -1126.040
 CYCLE:   439 TIME:   0.371 TIME LEFT:  2.00D  GRAD.:     3.884 HEAT: -1126.051
 CYCLE:   440 TIME:   0.348 TIME LEFT:  2.00D  GRAD.:     2.933 HEAT: -1126.064
 CYCLE:   441 TIME:   0.359 TIME LEFT:  2.00D  GRAD.:     3.546 HEAT: -1126.074
 CYCLE:   442 TIME:   0.344 TIME LEFT:  2.00D  GRAD.:     3.646 HEAT: -1126.083
 CYCLE:   443 TIME:   0.500 TIME LEFT:  2.00D  GRAD.:     2.976 HEAT: -1126.096
 CYCLE:   444 TIME:   0.453 TIME LEFT:  2.00D  GRAD.:     3.478 HEAT: -1126.107
 CYCLE:   445 TIME:   0.363 TIME LEFT:  2.00D  GRAD.:     2.929 HEAT: -1126.121
 CYCLE:   446 TIME:   0.355 TIME LEFT:  2.00D  GRAD.:     2.760 HEAT: -1126.132
 CYCLE:   447 TIME:   0.371 TIME LEFT:  2.00D  GRAD.:     2.295 HEAT: -1126.141
 CYCLE:   448 TIME:   0.359 TIME LEFT:  2.00D  GRAD.:     2.484 HEAT: -1126.149
 CYCLE:   449 TIME:   0.344 TIME LEFT:  2.00D  GRAD.:     2.265 HEAT: -1126.158
 CYCLE:   450 TIME:   0.375 TIME LEFT:  2.00D  GRAD.:     2.561 HEAT: -1126.166
 CYCLE:   451 TIME:   0.336 TIME LEFT:  2.00D  GRAD.:     1.782 HEAT: -1126.174
 CYCLE:   452 TIME:   0.352 TIME LEFT:  2.00D  GRAD.:     2.534 HEAT: -1126.181
 CYCLE:   453 TIME:   0.340 TIME LEFT:  2.00D  GRAD.:     2.241 HEAT: -1126.185
 CYCLE:   454 TIME:   0.379 TIME LEFT:  2.00D  GRAD.:     1.841 HEAT: -1126.191
 CYCLE:   455 TIME:   0.367 TIME LEFT:  2.00D  GRAD.:     2.078 HEAT: -1126.199
 CYCLE:   456 TIME:   0.371 TIME LEFT:  2.00D  GRAD.:     2.220 HEAT: -1126.205
 CYCLE:   457 TIME:   0.367 TIME LEFT:  2.00D  GRAD.:     2.706 HEAT: -1126.213
 CYCLE:   458 TIME:   0.453 TIME LEFT:  2.00D  GRAD.:     2.535 HEAT: -1126.222
 CYCLE:   459 TIME:   0.375 TIME LEFT:  2.00D  GRAD.:     2.656 HEAT: -1126.230
 CYCLE:   460 TIME:   0.344 TIME LEFT:  2.00D  GRAD.:     2.440 HEAT: -1126.238
 CYCLE:   461 TIME:   0.379 TIME LEFT:  2.00D  GRAD.:     2.325 HEAT: -1126.247
 CYCLE:   462 TIME:   0.379 TIME LEFT:  2.00D  GRAD.:     2.426 HEAT: -1126.257
 CYCLE:   463 TIME:   0.359 TIME LEFT:  2.00D  GRAD.:     2.400 HEAT: -1126.264
 CYCLE:   464 TIME:   0.355 TIME LEFT:  2.00D  GRAD.:     3.046 HEAT: -1126.271
 CYCLE:   465 TIME:   0.387 TIME LEFT:  2.00D  GRAD.:     1.974 HEAT: -1126.278
 CYCLE:   466 TIME:   0.348 TIME LEFT:  2.00D  GRAD.:     1.670 HEAT: -1126.284
 CYCLE:   467 TIME:   0.379 TIME LEFT:  2.00D  GRAD.:     1.847 HEAT: -1126.290
 CYCLE:   468 TIME:   0.371 TIME LEFT:  2.00D  GRAD.:     1.624 HEAT: -1126.296
 CYCLE:   469 TIME:   0.383 TIME LEFT:  2.00D  GRAD.:     1.869 HEAT: -1126.301
 CYCLE:   470 TIME:   0.375 TIME LEFT:  2.00D  GRAD.:     1.723 HEAT: -1126.305
 CYCLE:   471 TIME:   0.379 TIME LEFT:  2.00D  GRAD.:     1.381 HEAT: -1126.309
 CYCLE:   472 TIME:   0.363 TIME LEFT:  2.00D  GRAD.:     1.678 HEAT: -1126.312
 CYCLE:   473 TIME:   0.371 TIME LEFT:  2.00D  GRAD.:     1.491 HEAT: -1126.316
 CYCLE:   474 TIME:   0.363 TIME LEFT:  2.00D  GRAD.:     1.541 HEAT: -1126.321
 CYCLE:   475 TIME:   0.359 TIME LEFT:  2.00D  GRAD.:     1.551 HEAT: -1126.325
 CYCLE:   476 TIME:   0.379 TIME LEFT:  2.00D  GRAD.:     1.640 HEAT: -1126.329
 CYCLE:   477 TIME:   0.375 TIME LEFT:  2.00D  GRAD.:     1.485 HEAT: -1126.334
 CYCLE:   478 TIME:   0.363 TIME LEFT:  2.00D  GRAD.:     1.707 HEAT: -1126.339
 CYCLE:   479 TIME:   0.367 TIME LEFT:  2.00D  GRAD.:     1.834 HEAT: -1126.344
 CYCLE:   480 TIME:   0.371 TIME LEFT:  2.00D  GRAD.:     2.003 HEAT: -1126.348
 CYCLE:   481 TIME:   0.367 TIME LEFT:  2.00D  GRAD.:     2.301 HEAT: -1126.353
 CYCLE:   482 TIME:   0.441 TIME LEFT:  2.00D  GRAD.:     2.032 HEAT: -1126.359
 CYCLE:   483 TIME:   0.363 TIME LEFT:  2.00D  GRAD.:     2.175 HEAT: -1126.365
 CYCLE:   484 TIME:   0.375 TIME LEFT:  2.00D  GRAD.:     2.026 HEAT: -1126.369
 CYCLE:   485 TIME:   0.359 TIME LEFT:  2.00D  GRAD.:     2.215 HEAT: -1126.374
 CYCLE:   486 TIME:   0.363 TIME LEFT:  2.00D  GRAD.:     2.081 HEAT: -1126.380
 CYCLE:   487 TIME:   0.355 TIME LEFT:  2.00D  GRAD.:     1.695 HEAT: -1126.386
 CYCLE:   488 TIME:   0.371 TIME LEFT:  2.00D  GRAD.:     1.641 HEAT: -1126.390
 CYCLE:   489 TIME:   0.371 TIME LEFT:  2.00D  GRAD.:     1.667 HEAT: -1126.394
 CYCLE:   490 TIME:   0.371 TIME LEFT:  2.00D  GRAD.:     1.685 HEAT: -1126.398
 CYCLE:   491 TIME:   0.363 TIME LEFT:  2.00D  GRAD.:     1.672 HEAT: -1126.401
 CYCLE:   492 TIME:   0.359 TIME LEFT:  2.00D  GRAD.:     1.546 HEAT: -1126.405
 CYCLE:   493 TIME:   0.371 TIME LEFT:  2.00D  GRAD.:     1.839 HEAT: -1126.409
 CYCLE:   494 TIME:   0.371 TIME LEFT:  2.00D  GRAD.:     1.538 HEAT: -1126.412
 CYCLE:   495 TIME:   0.371 TIME LEFT:  2.00D  GRAD.:     1.372 HEAT: -1126.415
 CYCLE:   496 TIME:   0.348 TIME LEFT:  2.00D  GRAD.:     1.490 HEAT: -1126.419
 CYCLE:   497 TIME:   0.355 TIME LEFT:  2.00D  GRAD.:     1.636 HEAT: -1126.423
 CYCLE:   498 TIME:   0.383 TIME LEFT:  2.00D  GRAD.:     1.429 HEAT: -1126.427
 CYCLE:   499 TIME:   0.383 TIME LEFT:  2.00D  GRAD.:     1.276 HEAT: -1126.431
 CYCLE:   500 TIME:   0.363 TIME LEFT:  2.00D  GRAD.:     1.171 HEAT: -1126.433
 CYCLE:   501 TIME:   0.355 TIME LEFT:  2.00D  GRAD.:     1.321 HEAT: -1126.435
 CYCLE:   502 TIME:   0.383 TIME LEFT:  2.00D  GRAD.:     1.088 HEAT: -1126.437
 CYCLE:   503 TIME:   0.375 TIME LEFT:  2.00D  GRAD.:     0.986 HEAT: -1126.439
 CYCLE:   504 TIME:   0.359 TIME LEFT:  2.00D  GRAD.:     1.073 HEAT: -1126.440
 CYCLE:   505 TIME:   0.367 TIME LEFT:  2.00D  GRAD.:     1.045 HEAT: -1126.442
 CYCLE:   506 TIME:   0.375 TIME LEFT:  2.00D  GRAD.:     1.005 HEAT: -1126.443
 CYCLE:   507 TIME:   0.367 TIME LEFT:  2.00D  GRAD.:     0.864 HEAT: -1126.444
 CYCLE:   508 TIME:   0.359 TIME LEFT:  2.00D  GRAD.:     0.822 HEAT: -1126.445
 CYCLE:   509 TIME:   0.367 TIME LEFT:  2.00D  GRAD.:     0.844 HEAT: -1126.447
 CYCLE:   510 TIME:   0.383 TIME LEFT:  2.00D  GRAD.:     0.781 HEAT: -1126.448
 CYCLE:   511 TIME:   0.352 TIME LEFT:  2.00D  GRAD.:     0.828 HEAT: -1126.449
 CYCLE:   512 TIME:   0.363 TIME LEFT:  2.00D  GRAD.:     0.825 HEAT: -1126.450
 CYCLE:   513 TIME:   0.379 TIME LEFT:  2.00D  GRAD.:     0.877 HEAT: -1126.451
 CYCLE:   514 TIME:   0.375 TIME LEFT:  2.00D  GRAD.:     0.839 HEAT: -1126.452
 CYCLE:   515 TIME:   0.375 TIME LEFT:  2.00D  GRAD.:     0.689 HEAT: -1126.453
 CYCLE:   516 TIME:   0.371 TIME LEFT:  2.00D  GRAD.:     0.622 HEAT: -1126.453
 CYCLE:   517 TIME:   0.379 TIME LEFT:  2.00D  GRAD.:     0.587 HEAT: -1126.454
 CYCLE:   518 TIME:   0.367 TIME LEFT:  2.00D  GRAD.:     0.537 HEAT: -1126.454
 CYCLE:   519 TIME:   0.383 TIME LEFT:  2.00D  GRAD.:     0.518 HEAT: -1126.455
 CYCLE:   520 TIME:   0.363 TIME LEFT:  2.00D  GRAD.:     0.477 HEAT: -1126.455
 CYCLE:   521 TIME:   0.367 TIME LEFT:  2.00D  GRAD.:     0.497 HEAT: -1126.456
 CYCLE:   522 TIME:   0.363 TIME LEFT:  2.00D  GRAD.:     0.501 HEAT: -1126.456
 CYCLE:   523 TIME:   0.367 TIME LEFT:  2.00D  GRAD.:     0.515 HEAT: -1126.457
 CYCLE:   524 TIME:   0.324 TIME LEFT:  2.00D  GRAD.:     0.571 HEAT: -1126.457
 CYCLE:   525 TIME:   0.352 TIME LEFT:  2.00D  GRAD.:     0.574 HEAT: -1126.458
 CYCLE:   526 TIME:   0.375 TIME LEFT:  2.00D  GRAD.:     0.563 HEAT: -1126.458
 CYCLE:   527 TIME:   0.363 TIME LEFT:  2.00D  GRAD.:     0.561 HEAT: -1126.459
 CYCLE:   528 TIME:   0.367 TIME LEFT:  2.00D  GRAD.:     0.595 HEAT: -1126.460
 CYCLE:   529 TIME:   0.363 TIME LEFT:  2.00D  GRAD.:     0.658 HEAT: -1126.460
 CYCLE:   530 TIME:   0.387 TIME LEFT:  2.00D  GRAD.:     0.714 HEAT: -1126.461
 CYCLE:   531 TIME:   0.352 TIME LEFT:  2.00D  GRAD.:     0.717 HEAT: -1126.462
 CYCLE:   532 TIME:   0.371 TIME LEFT:  2.00D  GRAD.:     0.720 HEAT: -1126.464
 CYCLE:   533 TIME:   0.371 TIME LEFT:  2.00D  GRAD.:     0.735 HEAT: -1126.465
 CYCLE:   534 TIME:   0.379 TIME LEFT:  2.00D  GRAD.:     0.702 HEAT: -1126.466
 CYCLE:   535 TIME:   0.387 TIME LEFT:  2.00D  GRAD.:     0.834 HEAT: -1126.467
 CYCLE:   536 TIME:   0.371 TIME LEFT:  2.00D  GRAD.:     0.758 HEAT: -1126.468
 CYCLE:   537 TIME:   0.359 TIME LEFT:  2.00D  GRAD.:     0.932 HEAT: -1126.469
 CYCLE:   538 TIME:   0.375 TIME LEFT:  2.00D  GRAD.:     0.919 HEAT: -1126.471
 CYCLE:   539 TIME:   0.375 TIME LEFT:  2.00D  GRAD.:     0.811 HEAT: -1126.472
 CYCLE:   540 TIME:   0.355 TIME LEFT:  2.00D  GRAD.:     0.678 HEAT: -1126.473
 CYCLE:   541 TIME:   0.367 TIME LEFT:  2.00D  GRAD.:     0.639 HEAT: -1126.474
 CYCLE:   542 TIME:   0.387 TIME LEFT:  2.00D  GRAD.:     0.718 HEAT: -1126.475
 CYCLE:   543 TIME:   0.375 TIME LEFT:  2.00D  GRAD.:     0.600 HEAT: -1126.475
 CYCLE:   544 TIME:   0.348 TIME LEFT:  2.00D  GRAD.:     0.549 HEAT: -1126.476
 CYCLE:   545 TIME:   0.375 TIME LEFT:  2.00D  GRAD.:     0.515 HEAT: -1126.477
 CYCLE:   546 TIME:   0.359 TIME LEFT:  2.00D  GRAD.:     0.475 HEAT: -1126.477
 CYCLE:   547 TIME:   0.359 TIME LEFT:  2.00D  GRAD.:     0.425 HEAT: -1126.478
 CYCLE:   548 TIME:   0.363 TIME LEFT:  2.00D  GRAD.:     0.469 HEAT: -1126.478
 CYCLE:   549 TIME:   0.387 TIME LEFT:  2.00D  GRAD.:     0.471 HEAT: -1126.479
 CYCLE:   550 TIME:   0.367 TIME LEFT:  2.00D  GRAD.:     0.534 HEAT: -1126.479
 CYCLE:   551 TIME:   0.359 TIME LEFT:  2.00D  GRAD.:     0.527 HEAT: -1126.480
 CYCLE:   552 TIME:   0.371 TIME LEFT:  2.00D  GRAD.:     0.618 HEAT: -1126.480
 CYCLE:   553 TIME:   0.395 TIME LEFT:  2.00D  GRAD.:     0.642 HEAT: -1126.481
 CYCLE:   554 TIME:   0.391 TIME LEFT:  2.00D  GRAD.:     0.685 HEAT: -1126.482
 CYCLE:   555 TIME:   0.359 TIME LEFT:  2.00D  GRAD.:     0.663 HEAT: -1126.483
 CYCLE:   556 TIME:   0.359 TIME LEFT:  2.00D  GRAD.:     0.631 HEAT: -1126.484
 CYCLE:   557 TIME:   0.363 TIME LEFT:  2.00D  GRAD.:     0.595 HEAT: -1126.485
 CYCLE:   558 TIME:   0.359 TIME LEFT:  2.00D  GRAD.:     0.572 HEAT: -1126.486
 CYCLE:   559 TIME:   0.363 TIME LEFT:  2.00D  GRAD.:     0.544 HEAT: -1126.486
 CYCLE:   560 TIME:   0.344 TIME LEFT:  2.00D  GRAD.:     0.483 HEAT: -1126.487
 CYCLE:   561 TIME:   0.348 TIME LEFT:  2.00D  GRAD.:     0.472 HEAT: -1126.487
 CYCLE:   562 TIME:   0.359 TIME LEFT:  2.00D  GRAD.:     0.411 HEAT: -1126.488
 CYCLE:   563 TIME:   0.359 TIME LEFT:  2.00D  GRAD.:     0.428 HEAT: -1126.488
 CYCLE:   564 TIME:   0.359 TIME LEFT:  2.00D  GRAD.:     0.419 HEAT: -1126.488
 CYCLE:   565 TIME:   0.340 TIME LEFT:  2.00D  GRAD.:     0.413 HEAT: -1126.489
 CYCLE:   566 TIME:   0.352 TIME LEFT:  2.00D  GRAD.:     0.409 HEAT: -1126.489
 CYCLE:   567 TIME:   0.379 TIME LEFT:  2.00D  GRAD.:     0.466 HEAT: -1126.489
 CYCLE:   568 TIME:   0.375 TIME LEFT:  2.00D  GRAD.:     0.537 HEAT: -1126.490
 CYCLE:   569 TIME:   0.363 TIME LEFT:  2.00D  GRAD.:     0.571 HEAT: -1126.490
 CYCLE:   570 TIME:   0.363 TIME LEFT:  2.00D  GRAD.:     0.534 HEAT: -1126.491
 CYCLE:   571 TIME:   0.363 TIME LEFT:  2.00D  GRAD.:     0.462 HEAT: -1126.492
 CYCLE:   572 TIME:   0.375 TIME LEFT:  2.00D  GRAD.:     0.509 HEAT: -1126.492
 CYCLE:   573 TIME:   0.371 TIME LEFT:  2.00D  GRAD.:     0.454 HEAT: -1126.492
 CYCLE:   574 TIME:   0.355 TIME LEFT:  2.00D  GRAD.:     0.436 HEAT: -1126.493
 CYCLE:   575 TIME:   0.359 TIME LEFT:  2.00D  GRAD.:     0.403 HEAT: -1126.493
 CYCLE:   576 TIME:   0.375 TIME LEFT:  2.00D  GRAD.:     0.442 HEAT: -1126.493
 CYCLE:   577 TIME:   0.375 TIME LEFT:  2.00D  GRAD.:     0.403 HEAT: -1126.494
 CYCLE:   578 TIME:   0.355 TIME LEFT:  2.00D  GRAD.:     0.376 HEAT: -1126.494
 CYCLE:   579 TIME:   0.367 TIME LEFT:  2.00D  GRAD.:     0.364 HEAT: -1126.494
 CYCLE:   580 TIME:   0.375 TIME LEFT:  2.00D  GRAD.:     0.361 HEAT: -1126.495
 CYCLE:   581 TIME:   0.359 TIME LEFT:  2.00D  GRAD.:     0.358 HEAT: -1126.495
 CYCLE:   582 TIME:   0.359 TIME LEFT:  2.00D  GRAD.:     0.353 HEAT: -1126.495
 CYCLE:   583 TIME:   0.348 TIME LEFT:  2.00D  GRAD.:     0.388 HEAT: -1126.496
 CYCLE:   584 TIME:   0.371 TIME LEFT:  2.00D  GRAD.:     0.466 HEAT: -1126.496
 CYCLE:   585 TIME:   0.387 TIME LEFT:  2.00D  GRAD.:     0.467 HEAT: -1126.496
 CYCLE:   586 TIME:   0.367 TIME LEFT:  2.00D  GRAD.:     0.450 HEAT: -1126.497
 CYCLE:   587 TIME:   0.375 TIME LEFT:  2.00D  GRAD.:     0.380 HEAT: -1126.497
 CYCLE:   588 TIME:   0.348 TIME LEFT:  2.00D  GRAD.:     0.337 HEAT: -1126.498
 CYCLE:   589 TIME:   0.336 TIME LEFT:  2.00D  GRAD.:     0.324 HEAT: -1126.498
 CYCLE:   590 TIME:   0.363 TIME LEFT:  2.00D  GRAD.:     0.359 HEAT: -1126.498
 CYCLE:   591 TIME:   0.344 TIME LEFT:  2.00D  GRAD.:     0.331 HEAT: -1126.498
 CYCLE:   592 TIME:   0.355 TIME LEFT:  2.00D  GRAD.:     0.322 HEAT: -1126.499
 CYCLE:   593 TIME:   0.363 TIME LEFT:  2.00D  GRAD.:     0.271 HEAT: -1126.499
 CYCLE:   594 TIME:   0.359 TIME LEFT:  2.00D  GRAD.:     0.246 HEAT: -1126.499
 CYCLE:   595 TIME:   0.363 TIME LEFT:  2.00D  GRAD.:     0.275 HEAT: -1126.499
 CYCLE:   596 TIME:   0.348 TIME LEFT:  2.00D  GRAD.:     0.301 HEAT: -1126.499
 CYCLE:   597 TIME:   0.367 TIME LEFT:  2.00D  GRAD.:     0.312 HEAT: -1126.500
 CYCLE:   598 TIME:   0.348 TIME LEFT:  2.00D  GRAD.:     0.320 HEAT: -1126.500
 CYCLE:   599 TIME:   0.336 TIME LEFT:  2.00D  GRAD.:     0.298 HEAT: -1126.500
 CYCLE:   600 TIME:   0.348 TIME LEFT:  2.00D  GRAD.:     0.286 HEAT: -1126.500
 CYCLE:   601 TIME:   0.355 TIME LEFT:  2.00D  GRAD.:     0.268 HEAT: -1126.500
 CYCLE:   602 TIME:   0.336 TIME LEFT:  2.00D  GRAD.:     0.307 HEAT: -1126.501
 CYCLE:   603 TIME:   0.348 TIME LEFT:  2.00D  GRAD.:     0.331 HEAT: -1126.501
 CYCLE:   604 TIME:   0.363 TIME LEFT:  2.00D  GRAD.:     0.360 HEAT: -1126.501
 CYCLE:   605 TIME:   0.371 TIME LEFT:  2.00D  GRAD.:     0.321 HEAT: -1126.501
 CYCLE:   606 TIME:   0.355 TIME LEFT:  2.00D  GRAD.:     0.339 HEAT: -1126.502
 CYCLE:   607 TIME:   0.410 TIME LEFT:  2.00D  GRAD.:     0.334 HEAT: -1126.502
 CYCLE:   608 TIME:   0.379 TIME LEFT:  2.00D  GRAD.:     0.376 HEAT: -1126.502
 CYCLE:   609 TIME:   0.352 TIME LEFT:  2.00D  GRAD.:     0.394 HEAT: -1126.502
 CYCLE:   610 TIME:   0.371 TIME LEFT:  2.00D  GRAD.:     0.454 HEAT: -1126.503
 CYCLE:   611 TIME:   0.348 TIME LEFT:  2.00D  GRAD.:     0.400 HEAT: -1126.503
 CYCLE:   612 TIME:   0.383 TIME LEFT:  2.00D  GRAD.:     0.433 HEAT: -1126.504
 CYCLE:   613 TIME:   0.363 TIME LEFT:  2.00D  GRAD.:     0.363 HEAT: -1126.504
 CYCLE:   614 TIME:   0.359 TIME LEFT:  2.00D  GRAD.:     0.339 HEAT: -1126.504
 CYCLE:   615 TIME:   0.379 TIME LEFT:  2.00D  GRAD.:     0.369 HEAT: -1126.505
 CYCLE:   616 TIME:   0.387 TIME LEFT:  2.00D  GRAD.:     0.413 HEAT: -1126.505
 CYCLE:   617 TIME:   0.387 TIME LEFT:  2.00D  GRAD.:     0.397 HEAT: -1126.505
 CYCLE:   618 TIME:   0.375 TIME LEFT:  2.00D  GRAD.:     0.368 HEAT: -1126.506
 CYCLE:   619 TIME:   0.340 TIME LEFT:  2.00D  GRAD.:     0.377 HEAT: -1126.506
 CYCLE:   620 TIME:   0.367 TIME LEFT:  2.00D  GRAD.:     0.355 HEAT: -1126.506
 CYCLE:   621 TIME:   0.371 TIME LEFT:  2.00D  GRAD.:     0.359 HEAT: -1126.506
 CYCLE:   622 TIME:   0.371 TIME LEFT:  2.00D  GRAD.:     0.377 HEAT: -1126.507
 CYCLE:   623 TIME:   0.375 TIME LEFT:  2.00D  GRAD.:     0.446 HEAT: -1126.507
 CYCLE:   624 TIME:   0.383 TIME LEFT:  2.00D  GRAD.:     0.460 HEAT: -1126.508
 CYCLE:   625 TIME:   0.348 TIME LEFT:  2.00D  GRAD.:     0.486 HEAT: -1126.508
 CYCLE:   626 TIME:   0.371 TIME LEFT:  2.00D  GRAD.:     0.471 HEAT: -1126.509
 CYCLE:   627 TIME:   0.367 TIME LEFT:  2.00D  GRAD.:     0.525 HEAT: -1126.509
 CYCLE:   628 TIME:   0.391 TIME LEFT:  2.00D  GRAD.:     0.557 HEAT: -1126.510
 CYCLE:   629 TIME:   0.387 TIME LEFT:  2.00D  GRAD.:     0.562 HEAT: -1126.510
 CYCLE:   630 TIME:   0.379 TIME LEFT:  2.00D  GRAD.:     0.530 HEAT: -1126.511
 CYCLE:   631 TIME:   0.391 TIME LEFT:  2.00D  GRAD.:     0.497 HEAT: -1126.512
 CYCLE:   632 TIME:   0.367 TIME LEFT:  2.00D  GRAD.:     0.447 HEAT: -1126.512
 CYCLE:   633 TIME:   0.387 TIME LEFT:  2.00D  GRAD.:     0.421 HEAT: -1126.512
 CYCLE:   634 TIME:   0.355 TIME LEFT:  2.00D  GRAD.:     0.349 HEAT: -1126.513
 CYCLE:   635 TIME:   0.367 TIME LEFT:  2.00D  GRAD.:     0.289 HEAT: -1126.513
 CYCLE:   636 TIME:   0.375 TIME LEFT:  2.00D  GRAD.:     0.228 HEAT: -1126.513
 CYCLE:   637 TIME:   0.355 TIME LEFT:  2.00D  GRAD.:     0.228 HEAT: -1126.513
 CYCLE:   638 TIME:   0.363 TIME LEFT:  2.00D  GRAD.:     0.234 HEAT: -1126.513
 CYCLE:   639 TIME:   0.371 TIME LEFT:  2.00D  GRAD.:     0.311 HEAT: -1126.513
 CYCLE:   640 TIME:   0.348 TIME LEFT:  2.00D  GRAD.:     0.301 HEAT: -1126.514
 CYCLE:   641 TIME:   0.422 TIME LEFT:  2.00D  GRAD.:     0.360 HEAT: -1126.514
 CYCLE:   642 TIME:   0.359 TIME LEFT:  2.00D  GRAD.:     0.303 HEAT: -1126.514
 CYCLE:   643 TIME:   0.340 TIME LEFT:  2.00D  GRAD.:     0.264 HEAT: -1126.514
 CYCLE:   644 TIME:   0.352 TIME LEFT:  2.00D  GRAD.:     0.269 HEAT: -1126.514
 CYCLE:   645 TIME:   0.363 TIME LEFT:  2.00D  GRAD.:     0.368 HEAT: -1126.515
 CYCLE:   646 TIME:   0.352 TIME LEFT:  2.00D  GRAD.:     0.317 HEAT: -1126.515
 CYCLE:   647 TIME:   0.379 TIME LEFT:  2.00D  GRAD.:     0.347 HEAT: -1126.515
 CYCLE:   648 TIME:   0.328 TIME LEFT:  2.00D  GRAD.:     0.298 HEAT: -1126.515
 CYCLE:   649 TIME:   0.375 TIME LEFT:  2.00D  GRAD.:     0.349 HEAT: -1126.515
 CYCLE:   650 TIME:   0.379 TIME LEFT:  2.00D  GRAD.:     0.310 HEAT: -1126.516
 CYCLE:   651 TIME:   0.355 TIME LEFT:  2.00D  GRAD.:     0.227 HEAT: -1126.516
 CYCLE:   652 TIME:   0.363 TIME LEFT:  2.00D  GRAD.:     0.187 HEAT: -1126.516
 CYCLE:   653 TIME:   0.352 TIME LEFT:  2.00D  GRAD.:     0.170 HEAT: -1126.516
 CYCLE:   654 TIME:   0.344 TIME LEFT:  2.00D  GRAD.:     0.183 HEAT: -1126.516
 CYCLE:   655 TIME:   0.355 TIME LEFT:  2.00D  GRAD.:     0.200 HEAT: -1126.516
 CYCLE:   656 TIME:   0.379 TIME LEFT:  2.00D  GRAD.:     0.242 HEAT: -1126.516
 CYCLE:   657 TIME:   0.324 TIME LEFT:  2.00D  GRAD.:     0.242 HEAT: -1126.516
 CYCLE:   658 TIME:   0.371 TIME LEFT:  2.00D  GRAD.:     0.316 HEAT: -1126.517
 CYCLE:   659 TIME:   0.363 TIME LEFT:  2.00D  GRAD.:     0.209 HEAT: -1126.517
 CYCLE:   660 TIME:   0.352 TIME LEFT:  2.00D  GRAD.:     0.172 HEAT: -1126.517
 CYCLE:   661 TIME:   0.383 TIME LEFT:  2.00D  GRAD.:     0.236 HEAT: -1126.517
 CYCLE:   662 TIME:   0.363 TIME LEFT:  2.00D  GRAD.:     0.200 HEAT: -1126.517
 CYCLE:   663 TIME:   0.355 TIME LEFT:  2.00D  GRAD.:     0.192 HEAT: -1126.517
 CYCLE:   664 TIME:   0.391 TIME LEFT:  2.00D  GRAD.:     0.229 HEAT: -1126.517
 CYCLE:   665 TIME:   0.391 TIME LEFT:  2.00D  GRAD.:     0.221 HEAT: -1126.517
 CYCLE:   666 TIME:   0.352 TIME LEFT:  2.00D  GRAD.:     0.226 HEAT: -1126.517
 CYCLE:   667 TIME:   0.367 TIME LEFT:  2.00D  GRAD.:     0.202 HEAT: -1126.518
 CYCLE:   668 TIME:   0.352 TIME LEFT:  2.00D  GRAD.:     0.197 HEAT: -1126.518
 CYCLE:   669 TIME:   0.348 TIME LEFT:  2.00D  GRAD.:     0.172 HEAT: -1126.518
 CYCLE:   670 TIME:   0.355 TIME LEFT:  2.00D  GRAD.:     0.173 HEAT: -1126.518
 CYCLE:   671 TIME:   0.336 TIME LEFT:  2.00D  GRAD.:     0.154 HEAT: -1126.518
 CYCLE:   672 TIME:   0.371 TIME LEFT:  2.00D  GRAD.:     0.271 HEAT: -1126.518
 CYCLE:   673 TIME:   0.355 TIME LEFT:  2.00D  GRAD.:     0.183 HEAT: -1126.518
 CYCLE:   674 TIME:   0.332 TIME LEFT:  2.00D  GRAD.:     0.138 HEAT: -1126.518
 CYCLE:   675 TIME:   0.379 TIME LEFT:  2.00D  GRAD.:     0.151 HEAT: -1126.518
 CYCLE:   676 TIME:   0.371 TIME LEFT:  2.00D  GRAD.:     0.168 HEAT: -1126.518
 CYCLE:   677 TIME:   0.355 TIME LEFT:  2.00D  GRAD.:     0.178 HEAT: -1126.518
 CYCLE:   678 TIME:   0.391 TIME LEFT:  2.00D  GRAD.:     0.175 HEAT: -1126.518
 CYCLE:   679 TIME:   0.363 TIME LEFT:  2.00D  GRAD.:     0.173 HEAT: -1126.518
 CYCLE:   680 TIME:   0.387 TIME LEFT:  2.00D  GRAD.:     0.230 HEAT: -1126.519
 CYCLE:   681 TIME:   0.387 TIME LEFT:  2.00D  GRAD.:     0.226 HEAT: -1126.519
 CYCLE:   682 TIME:   0.375 TIME LEFT:  2.00D  GRAD.:     0.468 HEAT: -1126.519
 CYCLE:   683 TIME:   0.387 TIME LEFT:  2.00D  GRAD.:     0.230 HEAT: -1126.519
 CYCLE:   684 TIME:   0.352 TIME LEFT:  2.00D  GRAD.:     0.170 HEAT: -1126.519
 CYCLE:   685 TIME:   0.363 TIME LEFT:  2.00D  GRAD.:     0.257 HEAT: -1126.519
 CYCLE:   686 TIME:   0.359 TIME LEFT:  2.00D  GRAD.:     0.148 HEAT: -1126.519
 CYCLE:   687 TIME:   0.355 TIME LEFT:  2.00D  GRAD.:     0.128 HEAT: -1126.519
 CYCLE:   688 TIME:   0.391 TIME LEFT:  2.00D  GRAD.:     0.144 HEAT: -1126.519
 CYCLE:   689 TIME:   0.340 TIME LEFT:  2.00D  GRAD.:     0.173 HEAT: -1126.519
 CYCLE:   690 TIME:   0.344 TIME LEFT:  2.00D  GRAD.:     0.145 HEAT: -1126.519
 CYCLE:   691 TIME:   0.352 TIME LEFT:  2.00D  GRAD.:     0.138 HEAT: -1126.519
 CYCLE:   692 TIME:   0.344 TIME LEFT:  2.00D  GRAD.:     0.144 HEAT: -1126.520
 CYCLE:   693 TIME:   0.332 TIME LEFT:  2.00D  GRAD.:     0.160 HEAT: -1126.520
 CYCLE:   694 TIME:   0.348 TIME LEFT:  2.00D  GRAD.:     0.134 HEAT: -1126.520
 CYCLE:   695 TIME:   0.367 TIME LEFT:  2.00D  GRAD.:     0.126 HEAT: -1126.520
 CYCLE:   696 TIME:   0.344 TIME LEFT:  2.00D  GRAD.:     0.109 HEAT: -1126.520
 CYCLE:   697 TIME:   0.391 TIME LEFT:  2.00D  GRAD.:     0.144 HEAT: -1126.520
 CYCLE:   698 TIME:   0.328 TIME LEFT:  2.00D  GRAD.:     0.120 HEAT: -1126.520
 CYCLE:   699 TIME:   0.379 TIME LEFT:  2.00D  GRAD.:     1.372 HEAT: -1126.517
 CYCLE:   700 TIME:   0.391 TIME LEFT:  2.00D  GRAD.:     0.152 HEAT: -1126.520
 CYCLE:   701 TIME:   0.344 TIME LEFT:  2.00D  GRAD.:     0.133 HEAT: -1126.520
 CYCLE:   702 TIME:   0.367 TIME LEFT:  2.00D  GRAD.:     0.227 HEAT: -1126.520
 CYCLE:   703 TIME:   0.348 TIME LEFT:  2.00D  GRAD.:     0.169 HEAT: -1126.520
 CYCLE:   704 TIME:   0.363 TIME LEFT:  2.00D  GRAD.:     0.178 HEAT: -1126.520
 CYCLE:   705 TIME:   0.375 TIME LEFT:  2.00D  GRAD.:     0.146 HEAT: -1126.520
 CYCLE:   706 TIME:   0.391 TIME LEFT:  2.00D  GRAD.:     0.169 HEAT: -1126.520
 CYCLE:   707 TIME:   0.340 TIME LEFT:  2.00D  GRAD.:     0.131 HEAT: -1126.520
 CYCLE:   708 TIME:   0.371 TIME LEFT:  2.00D  GRAD.:     0.154 HEAT: -1126.520
 CYCLE:   709 TIME:   0.355 TIME LEFT:  2.00D  GRAD.:     0.125 HEAT: -1126.520
 CYCLE:   710 TIME:   0.375 TIME LEFT:  2.00D  GRAD.:     0.534 HEAT: -1126.520
 CYCLE:   711 TIME:   0.383 TIME LEFT:  2.00D  GRAD.:     0.120 HEAT: -1126.520
 CYCLE:   712 TIME:   0.328 TIME LEFT:  2.00D  GRAD.:     0.086 HEAT: -1126.520
 CYCLE:   713 TIME:   0.367 TIME LEFT:  2.00D  GRAD.:     0.170 HEAT: -1126.520
 CYCLE:   714 TIME:   0.359 TIME LEFT:  2.00D  GRAD.:     0.088 HEAT: -1126.521
 CYCLE:   715 TIME:   0.344 TIME LEFT:  2.00D  GRAD.:     0.081 HEAT: -1126.521
 CYCLE:   716 TIME:   0.371 TIME LEFT:  2.00D  GRAD.:     0.103 HEAT: -1126.521
 CYCLE:   717 TIME:   0.328 TIME LEFT:  2.00D  GRAD.:     0.110 HEAT: -1126.521
 CYCLE:   718 TIME:   0.363 TIME LEFT:  2.00D  GRAD.:     0.303 HEAT: -1126.521
 CYCLE:   719 TIME:   0.379 TIME LEFT:  2.00D  GRAD.:     0.146 HEAT: -1126.521
 CYCLE:   720 TIME:   0.344 TIME LEFT:  2.00D  GRAD.:     0.125 HEAT: -1126.521
 CYCLE:   721 TIME:   0.359 TIME LEFT:  2.00D  GRAD.:     0.209 HEAT: -1126.521
 CYCLE:   722 TIME:   0.359 TIME LEFT:  2.00D  GRAD.:     0.137 HEAT: -1126.521
 CYCLE:   723 TIME:   0.379 TIME LEFT:  2.00D  GRAD.:     0.106 HEAT: -1126.521
 CYCLE:   724 TIME:   0.348 TIME LEFT:  2.00D  GRAD.:     0.111 HEAT: -1126.521
 CYCLE:   725 TIME:   0.359 TIME LEFT:  2.00D  GRAD.:     0.112 HEAT: -1126.521
 CYCLE:   726 TIME:   0.355 TIME LEFT:  2.00D  GRAD.:     0.105 HEAT: -1126.521
 CYCLE:   727 TIME:   0.363 TIME LEFT:  2.00D  GRAD.:     0.090 HEAT: -1126.521
 CYCLE:   728 TIME:   0.363 TIME LEFT:  2.00D  GRAD.:     0.084 HEAT: -1126.521
 CYCLE:   729 TIME:   0.332 TIME LEFT:  2.00D  GRAD.:     0.091 HEAT: -1126.521
 CYCLE:   730 TIME:   0.371 TIME LEFT:  2.00D  GRAD.:     0.119 HEAT: -1126.521
 CYCLE:   731 TIME:   0.316 TIME LEFT:  2.00D  GRAD.:     0.080 HEAT: -1126.521
 CYCLE:   732 TIME:   0.344 TIME LEFT:  2.00D  GRAD.:     0.079 HEAT: -1126.521
 CYCLE:   733 TIME:   0.355 TIME LEFT:  2.00D  GRAD.:     0.072 HEAT: -1126.521
 CYCLE:   734 TIME:   0.391 TIME LEFT:  2.00D  GRAD.:     0.171 HEAT: -1126.521
 CYCLE:   735 TIME:   0.359 TIME LEFT:  2.00D  GRAD.:     0.083 HEAT: -1126.521
 CYCLE:   736 TIME:   0.348 TIME LEFT:  2.00D  GRAD.:     0.063 HEAT: -1126.521
 CYCLE:   737 TIME:   0.359 TIME LEFT:  2.00D  GRAD.:     0.072 HEAT: -1126.521
 CYCLE:   738 TIME:   0.363 TIME LEFT:  2.00D  GRAD.:     0.173 HEAT: -1126.521
 CYCLE:   739 TIME:   0.363 TIME LEFT:  2.00D  GRAD.:     0.085 HEAT: -1126.521
 CYCLE:   740 TIME:   0.336 TIME LEFT:  2.00D  GRAD.:     0.071 HEAT: -1126.521
 CYCLE:   741 TIME:   0.348 TIME LEFT:  2.00D  GRAD.:     0.058 HEAT: -1126.521
 CYCLE:   742 TIME:   0.375 TIME LEFT:  2.00D  GRAD.:     0.262 HEAT: -1126.521
 CYCLE:   743 TIME:   0.355 TIME LEFT:  2.00D  GRAD.:     0.092 HEAT: -1126.521
 CYCLE:   744 TIME:   0.355 TIME LEFT:  2.00D  GRAD.:     0.067 HEAT: -1126.521
 CYCLE:   745 TIME:   0.352 TIME LEFT:  2.00D  GRAD.:     0.066 HEAT: -1126.521
 CYCLE:   746 TIME:   0.348 TIME LEFT:  2.00D  GRAD.:     0.075 HEAT: -1126.521
 CYCLE:   747 TIME:   0.359 TIME LEFT:  2.00D  GRAD.:     0.256 HEAT: -1126.521
 CYCLE:   748 TIME:   0.344 TIME LEFT:  2.00D  GRAD.:     0.104 HEAT: -1126.522
 CYCLE:   749 TIME:   0.348 TIME LEFT:  2.00D  GRAD.:     0.084 HEAT: -1126.522
 CYCLE:   750 TIME:   0.375 TIME LEFT:  2.00D  GRAD.:     0.174 HEAT: -1126.522
 CYCLE:   751 TIME:   0.367 TIME LEFT:  2.00D  GRAD.:     0.067 HEAT: -1126.522
 CYCLE:   752 TIME:   0.344 TIME LEFT:  2.00D  GRAD.:     0.060 HEAT: -1126.522
 CYCLE:   753 TIME:   0.363 TIME LEFT:  2.00D  GRAD.:     0.074 HEAT: -1126.522
 CYCLE:   754 TIME:   0.348 TIME LEFT:  2.00D  GRAD.:     0.052 HEAT: -1126.522
 CYCLE:   755 TIME:   0.340 TIME LEFT:  2.00D  GRAD.:     0.065 HEAT: -1126.522
 CYCLE:   756 TIME:   0.363 TIME LEFT:  2.00D  GRAD.:     0.155 HEAT: -1126.522
 CYCLE:   757 TIME:   0.348 TIME LEFT:  2.00D  GRAD.:     0.065 HEAT: -1126.522
 CYCLE:   758 TIME:   0.328 TIME LEFT:  2.00D  GRAD.:     0.037 HEAT: -1126.522

     GRADIENT =  0.03716  IS LESS THAN CUTOFF =  0.05000



 -------------------------------------------------------------------------------
 CHARGE=0  AM1 XYZ EF PRECISE MMOK PDBOUT
 Title



[...]
   10          C(HETATM   10  C   HET A   1)          -0.008265        4.0083     1.23050     2.77777
   11          O(HETATM   11  O   HET A   1)          -0.323720        6.3237     1.86989     4.45383
   12          C(HETATM   12  C   HET A   1)           0.317443        3.6826     1.22366     2.45890
   13          O(HETATM   13  O   HET A   1)          -0.379649        6.3796     1.91633     4.46332
   14          C(HETATM   14  C   HET A   1)          -0.239764        4.2398     1.22928     3.01048
   15          C(HETATM   15  C   HET A   1)           0.144643        3.8554     1.25170     2.60366
   16          C(HETATM   16  C   HET A   1)          -0.020721        4.0207     1.22931     2.79141
   17          N(HETATM   17  N   HET A   1)          -0.366497        5.3665     1.46816     3.89834
   18          C(HETATM   18  C   HET A   1)           0.011243        3.9888     1.23291     2.75584
   19          O(HETATM   19  O   HET A   1)          -0.306780        6.3068     1.86956     4.43722
   20          C(HETATM   20  C   HET A   1)          -0.026285        4.0263     1.24276     2.78352
   21          O(HETATM   21  O   HET A   1)          -0.250373        6.2504     1.87881     4.37156
   22          C(HETATM   22  C   HET A   1)          -0.012876        4.0129     1.23945     2.77342
   23          O(HETATM   23  O   HET A   1)          -0.326807        6.3268     1.87643     4.45037
   24          C(HETATM   24  C   HET A   1)          -0.013747        4.0137     1.23071     2.78304
   25          O(HETATM   25  O   HET A   1)          -0.337826        6.3378     1.87004     4.46779
   26          C(HETATM   26  C   HET A   1)           0.312895        3.6871     1.22395     2.46316
   27          O(HETATM   27  O   HET A   1)          -0.361345        6.3613     1.91620     4.44514
   28          C(HETATM   28  C   HET A   1)          -0.242492        4.2425     1.23018     3.01231
   29          C(HETATM   29  C   HET A   1)           0.143834        3.8562     1.24599     2.61017
   30          C(HETATM   30  C   HET A   1)          -0.028527        4.0285     1.23121     2.79731
   31          N(HETATM   31  N   HET A   1)          -0.370238        5.3702     1.46996     3.90027
   32          C(HETATM   32  C   HET A   1)           0.006589        3.9934     1.23553     2.75788
   33          O(HETATM   33  O   HET A   1)          -0.315989        6.3160     1.87056     4.44543
   34          C(HETATM   34  C   HET A   1)          -0.020209        4.0202     1.24222     2.77799
   35          O(HETATM   35  O   HET A   1)          -0.242843        6.2428     1.87855     4.36429
   36          C(HETATM   36  C   HET A   1)          -0.015735        4.0157     1.23972     2.77602
   37          O(HETATM   37  O   HET A   1)          -0.295412        6.2954     1.88092     4.41449
   38          C(HETATM   38  C   HET A   1)          -0.020165        4.0202     1.23340     2.78677
   39          O(HETATM   39  O   HET A   1)          -0.337891        6.3379     1.87014     4.46776
   40          C(HETATM   40  C   HET A   1)           0.307660        3.6923     1.22547     2.46687
   41          O(HETATM   41  O   HET A   1)          -0.367282        6.3673     1.91627     4.45101
   42          C(HETATM   42  C   HET A   1)          -0.242300        4.2423     1.23010     3.01220
   43          C(HETATM   43  C   HET A   1)           0.176434        3.8236     1.22610     2.59747
   44          O(HETATM   44  O   HET A   1)          -0.342288        6.3423     1.86918     4.47311
   45          C(HETATM   45  C   HET A   1)          -0.039411        4.0394     1.21219     2.82722
   46          N(HETATM   46  N   HET A   1)          -0.318503        5.3185     1.45127     3.86723
   47          C(HETATM   47  C   HET A   1)          -0.223781        4.2238     1.24126     2.98252
   48          C(HETATM   48  C   HET A   1)           0.042541        3.9575     1.22141     2.73605
   49          O(HETATM   49  O   HET A   1)          -0.249342        6.2493     1.87797     4.37137
   50          C(HETATM   50  C   HET A   1)          -0.012801        4.0128     1.24196     2.77084
   51          O(HETATM   51  O   HET A   1)          -0.279115        6.2791     1.87940     4.39971
   52          C(HETATM   52  C   HET A   1)          -0.004073        4.0041     1.22788     2.77620
   53          O(HETATM   53  O   HET A   1)          -0.325189        6.3252     1.87016     4.45503
   54          C(HETATM   54  C   HET A   1)           0.309837        3.6902     1.22508     2.46508
   55          O(HETATM   55  O   HET A   1)          -0.359848        6.3598     1.91546     4.44439
   56          C(HETATM   56  C   HET A   1)          -0.245699        4.2457     1.23138     3.01432
   57          C(HETATM   57  C   HET A   1)           0.161114        3.8389     1.23854     2.60035
   58          O(HETATM   58  O   HET A   1)          -0.288936        6.2889     1.88321     4.40572
   59          C(HETATM   59  C   HET A   1)          -0.043089        4.0431     1.24441     2.79868
   60          C(HETATM   60  C   HET A   1)          -0.025239        4.0252     1.23723     2.78801
   61          C(HETATM   61  C   HET A   1)          -0.036748        4.0367     1.24064     2.79611
   62          C(HETATM   62  C   HET A   1)          -0.030765        4.0308     1.24023     2.79054
   63          O(HETATM   63  O   HET A   1)          -0.324770        6.3248     1.87032     4.45445
   64          O(HETATM   64  O   HET A   1)          -0.322270        6.3223     1.87149     4.45078
   65          O(HETATM   65  O   HET A   1)          -0.324413        6.3244     1.87201     4.45240
   66          C(HETATM   66  C   HET A   1)          -0.001816        4.0018     1.22778     2.77404
   67          O(HETATM   67  O   HET A   1)          -0.331173        6.3312     1.87009     4.46108
   68          H(HETATM   68  H   HET A   1)           0.230086        0.7699     0.76991
   69          H(HETATM   69  H   HET A   1)           0.106347        0.8937     0.89365
   70          H(HETATM   70  H   HET A   1)           0.148153        0.8518     0.85185
   71          H(HETATM   71  H   HET A   1)           0.227853        0.7721     0.77215
   72          H(HETATM   72  H   HET A   1)           0.129751        0.8702     0.87025
   73          H(HETATM   73  H   HET A   1)           0.228581        0.7714     0.77142
   74          H(HETATM   74  H   HET A   1)           0.124211        0.8758     0.87579
   75          H(HETATM   75  H   HET A   1)           0.099494        0.9005     0.90051
   76          H(HETATM   76  H   HET A   1)           0.076914        0.9231     0.92309
   77          H(HETATM   77  H   HET A   1)           0.122935        0.8771     0.87707
   78          H(HETATM   78  H   HET A   1)           0.224260        0.7757     0.77574
   79          H(HETATM   79  H   HET A   1)           0.105717        0.8943     0.89428
   80          H(HETATM   80  H   HET A   1)           0.122479        0.8775     0.87752
   81          H(HETATM   81  H   HET A   1)           0.100249        0.8998     0.89975
   82          H(HETATM   82  H   HET A   1)           0.101804        0.8982     0.89820
   83          H(HETATM   83  H   HET A   1)           0.157092        0.8429     0.84291
   84          H(HETATM   84  H   HET A   1)           0.223499        0.7765     0.77650
   85          H(HETATM   85  H   HET A   1)           0.116489        0.8835     0.88351
   86          H(HETATM   86  H   HET A   1)           0.224831        0.7752     0.77517
   87          H(HETATM   87  H   HET A   1)           0.129240        0.8708     0.87076
   88          H(HETATM   88  H   HET A   1)           0.102900        0.8971     0.89710
   89          H(HETATM   89  H   HET A   1)           0.104652        0.8953     0.89535
   90          H(HETATM   90  H   HET A   1)           0.081645        0.9184     0.91835
   91          H(HETATM   91  H   HET A   1)           0.230611        0.7694     0.76939
   92          H(HETATM   92  H   HET A   1)           0.103497        0.8965     0.89650
   93          H(HETATM   93  H   HET A   1)           0.117798        0.8822     0.88220
   94          H(HETATM   94  H   HET A   1)           0.099694        0.9003     0.90031
   95          H(HETATM   95  H   HET A   1)           0.088272        0.9117     0.91173
   96          H(HETATM   96  H   HET A   1)           0.148587        0.8514     0.85141
   97          H(HETATM   97  H   HET A   1)           0.225591        0.7744     0.77441
   98          H(HETATM   98  H   HET A   1)           0.126959        0.8730     0.87304
   99          H(HETATM   99  H   HET A   1)           0.211966        0.7880     0.78803
  100          H(HETATM  100  H   HET A   1)           0.121307        0.8787     0.87869
  101          H(HETATM  101  H   HET A   1)           0.105178        0.8948     0.89482
  102          H(HETATM  102  H   HET A   1)           0.113890        0.8861     0.88611
  103          H(HETATM  103  H   HET A   1)           0.110182        0.8898     0.88982
  104          H(HETATM  104  H   HET A   1)           0.216969        0.7830     0.78303
  105          H(HETATM  105  H   HET A   1)           0.102474        0.8975     0.89753
  106          H(HETATM  106  H   HET A   1)           0.122293        0.8777     0.87771
  107          H(HETATM  107  H   HET A   1)           0.100840        0.8992     0.89916
  108          H(HETATM  108  H   HET A   1)           0.152157        0.8478     0.84784
  109          H(HETATM  109  H   HET A   1)           0.218676        0.7813     0.78132
  110          H(HETATM  110  H   HET A   1)           0.241223        0.7588     0.75878
  111          H(HETATM  111  H   HET A   1)           0.193569        0.8064     0.80643
  112          H(HETATM  112  H   HET A   1)           0.098156        0.9018     0.90184
  113          H(HETATM  113  H   HET A   1)           0.109518        0.8905     0.89048
  114          H(HETATM  114  H   HET A   1)           0.065821        0.9342     0.93418
  115          H(HETATM  115  H   HET A   1)           0.121895        0.8781     0.87810
  116          H(HETATM  116  H   HET A   1)           0.104110        0.8959     0.89589
  117          H(HETATM  117  H   HET A   1)           0.120302        0.8797     0.87970
  118          H(HETATM  118  H   HET A   1)           0.103537        0.8965     0.89646
  119          H(HETATM  119  H   HET A   1)           0.114850        0.8852     0.88515
  120          H(HETATM  120  H   HET A   1)           0.109591        0.8904     0.89041
  121          H(HETATM  121  H   HET A   1)           0.138261        0.8617     0.86174
  122          H(HETATM  122  H   HET A   1)           0.132413        0.8676     0.86759
  123          H(HETATM  123  H   HET A   1)           0.100905        0.8991     0.89909
  124          H(HETATM  124  H   HET A   1)           0.226657        0.7733     0.77334
  125          H(HETATM  125  H   HET A   1)           0.220782        0.7792     0.77922
  126          H(HETATM  126  H   HET A   1)           0.217801        0.7822     0.78220
  127          H(HETATM  127  H   HET A   1)           0.080778        0.9192     0.91922
  128          H(HETATM  128  H   HET A   1)           0.110691        0.8893     0.88931
  129          H(HETATM  129  H   HET A   1)           0.230749        0.7693     0.76925

          NET CHARGE ON RESIDUES

      Residue         Charge  Anion or
                              Cation?
      HET A   1       +0.000
 


 DIPOLE           X         Y         Z       TOTAL
 POINT-CHG.    -2.866     0.919     1.891     3.554
 HYBRID        -0.505     0.334    -0.021     0.606
 SUM           -3.371     1.253     1.870     4.053


          ATOMIC ORBITAL ELECTRON POPULATIONS

                   Atom                  s        px        py        pz   
   C(HETATM    1  C   HET A   1)   1.24590   0.88789   0.87281   0.85410
   C(HETATM    2  C   HET A   1)   1.22801   0.87967   0.93094   0.98113
   N(HETATM    3  N   HET A   1)   1.46187   1.23581   1.08598   1.59461
   C(HETATM    4  C   HET A   1)   1.23851   0.84599   0.95639   0.96472
   O(HETATM    5  O   HET A   1)   1.86987   1.26438   1.81352   1.38143
   C(HETATM    6  C   HET A   1)   1.24567   0.94604   0.99311   0.83763
   O(HETATM    7  O   HET A   1)   1.87704   1.40930   1.72591   1.25074
   C(HETATM    8  C   HET A   1)   1.24012   0.93310   0.97635   0.84664
   O(HETATM    9  O   HET A   1)   1.87956   1.61022   1.44984   1.36418
   C(HETATM   10  C   HET A   1)   1.23050   0.92567   0.82534   1.02676
   O(HETATM   11  O   HET A   1)   1.86989   1.68306   1.31932   1.45145
   C(HETATM   12  C   HET A   1)   1.22366   0.79240   0.91549   0.75100
   O(HETATM   13  O   HET A   1)   1.91633   1.69296   1.21873   1.55163
   C(HETATM   14  C   HET A   1)   1.22928   1.01520   0.96304   1.03224
   C(HETATM   15  C   HET A   1)   1.25170   0.78184   0.90313   0.91870
   C(HETATM   16  C   HET A   1)   1.22931   0.92378   0.88099   0.98664
   N(HETATM   17  N   HET A   1)   1.46816   1.26674   1.50068   1.13092
   C(HETATM   18  C   HET A   1)   1.23291   0.92012   0.84519   0.99053
   O(HETATM   19  O   HET A   1)   1.86956   1.95170   1.17936   1.30617
   C(HETATM   20  C   HET A   1)   1.24276   0.84217   0.92822   1.01313
   O(HETATM   21  O   HET A   1)   1.87881   1.26645   1.83342   1.27169
   C(HETATM   22  C   HET A   1)   1.23945   0.83231   0.93572   1.00539
   O(HETATM   23  O   HET A   1)   1.87643   1.21875   1.55400   1.67763
   C(HETATM   24  C   HET A   1)   1.23071   0.96896   0.97601   0.83807
   O(HETATM   25  O   HET A   1)   1.87004   1.27147   1.91166   1.28466
   C(HETATM   26  C   HET A   1)   1.22395   0.79385   0.77046   0.89885
   O(HETATM   27  O   HET A   1)   1.91620   1.64126   1.62114   1.18274
   C(HETATM   28  C   HET A   1)   1.23018   1.02517   1.00427   0.98287
   C(HETATM   29  C   HET A   1)   1.24599   0.95446   0.80714   0.84858
   C(HETATM   30  C   HET A   1)   1.23121   0.99175   0.93923   0.86633
   N(HETATM   31  N   HET A   1)   1.46996   1.59203   1.16699   1.14126
   C(HETATM   32  C   HET A   1)   1.23553   0.92110   0.92082   0.91596
   O(HETATM   33  O   HET A   1)   1.87056   1.16737   1.94135   1.33671
   C(HETATM   34  C   HET A   1)   1.24222   1.00168   0.83422   0.94209
   O(HETATM   35  O   HET A   1)   1.87855   1.30897   1.21990   1.83542
   C(HETATM   36  C   HET A   1)   1.23972   0.96538   0.82716   0.98348
   O(HETATM   37  O   HET A   1)   1.88092   1.88656   1.21315   1.31478
   C(HETATM   38  C   HET A   1)   1.23340   0.90607   0.97999   0.90070
   O(HETATM   39  O   HET A   1)   1.87014   1.37187   1.26171   1.83417
   C(HETATM   40  C   HET A   1)   1.22547   0.76702   0.80406   0.89579
   O(HETATM   41  O   HET A   1)   1.91627   1.37148   1.59030   1.48924
   C(HETATM   42  C   HET A   1)   1.23010   1.03629   1.03991   0.93599
   C(HETATM   43  C   HET A   1)   1.22610   0.98803   0.83393   0.77551
   O(HETATM   44  O   HET A   1)   1.86918   1.30353   1.64848   1.52110
   C(HETATM   45  C   HET A   1)   1.21219   1.00962   0.93849   0.87911
   N(HETATM   46  N   HET A   1)   1.45127   1.58580   1.13228   1.14915
   C(HETATM   47  C   HET A   1)   1.24126   1.00299   1.03863   0.94091
   C(HETATM   48  C   HET A   1)   1.22141   0.84921   0.94240   0.94445
   O(HETATM   49  O   HET A   1)   1.87797   1.29746   1.26852   1.80540
   C(HETATM   50  C   HET A   1)   1.24196   0.86307   0.91711   0.99066
   O(HETATM   51  O   HET A   1)   1.87940   1.35386   1.65382   1.39204
   C(HETATM   52  C   HET A   1)   1.22788   0.86554   0.99146   0.91920
   O(HETATM   53  O   HET A   1)   1.87016   1.16172   1.34383   1.94948
   C(HETATM   54  C   HET A   1)   1.22508   0.78087   0.80145   0.88275
   O(HETATM   55  O   HET A   1)   1.91546   1.38316   1.46238   1.59885
   C(HETATM   56  C   HET A   1)   1.23138   1.02800   1.05223   0.93409
   C(HETATM   57  C   HET A   1)   1.23854   0.80974   0.85158   0.93903
   O(HETATM   58  O   HET A   1)   1.88321   1.25876   1.32511   1.82185
   C(HETATM   59  C   HET A   1)   1.24441   0.86364   0.98257   0.95247
   C(HETATM   60  C   HET A   1)   1.23723   0.98259   0.91243   0.89300
   C(HETATM   61  C   HET A   1)   1.24064   0.94293   0.95163   0.90156
   C(HETATM   62  C   HET A   1)   1.24023   0.93561   0.89771   0.95722
   O(HETATM   63  O   HET A   1)   1.87032   1.73924   1.31054   1.40467
   O(HETATM   64  O   HET A   1)   1.87149   1.90606   1.33099   1.21373
   O(HETATM   65  O   HET A   1)   1.87201   1.58844   1.55426   1.30970
   C(HETATM   66  C   HET A   1)   1.22778   0.97256   0.91123   0.89025
   O(HETATM   67  O   HET A   1)   1.87009   1.35420   1.80661   1.30027
   H(HETATM   68  H   HET A   1)   0.76991
   H(HETATM   69  H   HET A   1)   0.89365
   H(HETATM   70  H   HET A   1)   0.85185
   H(HETATM   71  H   HET A   1)   0.77215
   H(HETATM   72  H   HET A   1)   0.87025
   H(HETATM   73  H   HET A   1)   0.77142
   H(HETATM   74  H   HET A   1)   0.87579
   H(HETATM   75  H   HET A   1)   0.90051
   H(HETATM   76  H   HET A   1)   0.92309
   H(HETATM   77  H   HET A   1)   0.87707
   H(HETATM   78  H   HET A   1)   0.77574
   H(HETATM   79  H   HET A   1)   0.89428
   H(HETATM   80  H   HET A   1)   0.87752
   H(HETATM   81  H   HET A   1)   0.89975
   H(HETATM   82  H   HET A   1)   0.89820
   H(HETATM   83  H   HET A   1)   0.84291
   H(HETATM   84  H   HET A   1)   0.77650
   H(HETATM   85  H   HET A   1)   0.88351
   H(HETATM   86  H   HET A   1)   0.77517
   H(HETATM   87  H   HET A   1)   0.87076
   H(HETATM   88  H   HET A   1)   0.89710
   H(HETATM   89  H   HET A   1)   0.89535
   H(HETATM   90  H   HET A   1)   0.91835
   H(HETATM   91  H   HET A   1)   0.76939
   H(HETATM   92  H   HET A   1)   0.89650
   H(HETATM   93  H   HET A   1)   0.88220
   H(HETATM   94  H   HET A   1)   0.90031
   H(HETATM   95  H   HET A   1)   0.91173
   H(HETATM   96  H   HET A   1)   0.85141
   H(HETATM   97  H   HET A   1)   0.77441
   H(HETATM   98  H   HET A   1)   0.87304
   H(HETATM   99  H   HET A   1)   0.78803
   H(HETATM  100  H   HET A   1)   0.87869
   H(HETATM  101  H   HET A   1)   0.89482
   H(HETATM  102  H   HET A   1)   0.88611
   H(HETATM  103  H   HET A   1)   0.88982
   H(HETATM  104  H   HET A   1)   0.78303
   H(HETATM  105  H   HET A   1)   0.89753
   H(HETATM  106  H   HET A   1)   0.87771
   H(HETATM  107  H   HET A   1)   0.89916
   H(HETATM  108  H   HET A   1)   0.84784
   H(HETATM  109  H   HET A   1)   0.78132
   H(HETATM  110  H   HET A   1)   0.75878
   H(HETATM  111  H   HET A   1)   0.80643
   H(HETATM  112  H   HET A   1)   0.90184
   H(HETATM  113  H   HET A   1)   0.89048
   H(HETATM  114  H   HET A   1)   0.93418
   H(HETATM  115  H   HET A   1)   0.87810
   H(HETATM  116  H   HET A   1)   0.89589
   H(HETATM  117  H   HET A   1)   0.87970
   H(HETATM  118  H   HET A   1)   0.89646
   H(HETATM  119  H   HET A   1)   0.88515
   H(HETATM  120  H   HET A   1)   0.89041
   H(HETATM  121  H   HET A   1)   0.86174
   H(HETATM  122  H   HET A   1)   0.86759
   H(HETATM  123  H   HET A   1)   0.89909
   H(HETATM  124  H   HET A   1)   0.77334
   H(HETATM  125  H   HET A   1)   0.77922
   H(HETATM  126  H   HET A   1)   0.78220
   H(HETATM  127  H   HET A   1)   0.91922
   H(HETATM  128  H   HET A   1)   0.88931
   H(HETATM  129  H   HET A   1)   0.76925

 **********************
 *                    *
 * JOB ENDED NORMALLY *
 *                    *
 **********************



 TOTAL JOB TIME:           291.01 SECONDS

 == MOPAC DONE ==
