 *******************************************************************************
 ** Site#: 27476        For non-commercial use only    Version 17.119W 32BITS **
 *******************************************************************************
 ** Cite this program as: MOPAC2016, Version: 17.119W, James J. P. Stewart,   **
 ** Stewart Computational Chemistry, web: HTTP://OpenMOPAC.net. Days left:   0**
 *******************************************************************************
 **                                                                           **
 **                                MOPAC2016                                  **
 **                                                                           **
 *******************************************************************************

                              AM1 CALCULATION RESULTS


 *******************************************************************************
 *  CALCULATION DONE:                                Wed Mar 20 13:36:22 2019  *
 *  AM1        - The AM1 Hamiltonian to be used
 *  MMOK       - APPLY MM CORRECTION TO CONH BARRIER
 *  PDBOUT     - PRINT GEOMETY IN PDB FORMAT
 *
 *
 *
 *                 CHARGE ON SYSTEM = 0
 *
 *
 *
 *  PRECISE    - CRITERIA TO BE INCREASED BY 100 TIMES
 *  XYZ        - CARTESIAN COORDINATE SYSTEM TO BE USED
 *  EF         - USE EF ROUTINE FOR MINIMUM SEARCH
 *  T=         - A TIME OF 172800.0 SECONDS REQUESTED
 *  DUMP=N     - RESTART FILE WRITTEN EVERY  7200.000 SECONDS
 *******************************************************************************
 CHARGE=0  AM1 XYZ EF PRECISE MMOK PDBOUT
 Title

   ATOM   CHEMICAL          X               Y               Z
  NUMBER   SYMBOL      (ANGSTROMS)     (ANGSTROMS)     (ANGSTROMS)
 
     1       C         28.18200000  *   2.52800000  * -13.69500000  *
     2       C         29.70400000  *   2.26900000  * -13.79600000  *
     3       N         30.07900000  *   0.88100000  * -13.46500000  *
     4       C         30.49700000  *   3.22400000  * -12.88400000  *
     5       O         31.90900000  *   3.08600000  * -13.16800000  *
     6       C         30.04600000  *   4.68600000  * -13.04100000  *
     7       O         30.56900000  *   5.51700000  * -11.99200000  *
     8       C         28.51100000  *   4.77400000  * -12.95500000  *
     9       O         27.88800000  *   3.90400000  * -13.90300000  *
    10       C         28.01500000  *   6.21100000  * -13.21300000  *
    11       O         28.50100000  *   6.73500000  * -14.44900000  *
    12       C         30.24500000  *  -0.09200000  * -14.41800000  *
    13       O         30.11100000  *   0.09700000  * -15.62300000  *
    14       C         30.64600000  *  -1.43300000  * -13.86700000  *
    15       C         23.67300000  *   0.29400000  * -15.36500000  *
    16       C         23.90700000  *   1.75400000  * -15.81900000  *
    17       N         23.27400000  *   2.02500000  * -17.11800000  *
    18       C         25.42300000  *   2.05000000  * -15.87900000  *
    19       O         25.65500000  *   3.43000000  * -16.19500000  *
    20       C         26.11900000  *   1.65500000  * -14.55700000  *
    21       O         27.53800000  *   1.75300000  * -14.71100000  *
    22       C         25.76300000  *   0.18800000  * -14.24800000  *
    23       O         24.34400000  *   0.03800000  * -14.13600000  *
    24       C         26.37500000  *  -0.31000000  * -12.93400000  *
    25       O         26.05600000  *   0.56500000  * -11.85200000  *
    26       C         22.56400000  *   3.17400000  * -17.36000000  *
    27       O         22.36000000  *   4.03900000  * -16.51400000  *
    28       C         22.00800000  *   3.27600000  * -18.75600000  *
    29       C         19.78600000  *  -3.31800000  * -15.62900000  *
    30       C         20.82800000  *  -3.38300000  * -14.48300000  *
    31       N         20.29200000  *  -3.99900000  * -13.25600000  *
    32       C         21.40700000  *  -1.98400000  * -14.15500000  *
    33       O         22.49500000  *  -2.10300000  * -13.22600000  *
    34       C         21.85200000  *  -1.26100000  * -15.43900000  *
    35       O         22.26600000  *   0.08400000  * -15.17400000  *
    36       C         20.64500000  *  -1.22400000  * -16.39300000  *
    37       O         20.28300000  *  -2.56300000  * -16.73800000  *
    38       C         20.94300000  *  -0.48100000  * -17.70000000  *
    39       O         22.18500000  *  -0.90300000  * -18.26900000  *
    40       C         21.05600000  *  -4.88000000  * -12.52100000  *
    41       O         22.15100000  *  -5.29300000  * -12.88600000  *
    42       C         20.42300000  *  -5.32100000  * -11.22800000  *
    43       C         16.57600000  *  -7.37400000  * -16.56900000  *
    44       O         16.92500000  *  -8.09000000  * -17.74400000  *
    45       C         16.38000000  *  -5.90100000  * -16.90900000  *
    46       N         15.30600000  *  -5.62000000  * -17.74300000  *
    47       C         17.23700000  *  -4.97800000  * -16.44500000  *
    48       C         18.43800000  *  -5.32400000  * -15.60600000  *
    49       O         19.55500000  *  -4.62800000  * -16.14200000  *
    50       C         18.71800000  *  -6.85500000  * -15.58200000  *
    51       O         17.49400000  *  -7.60400000  * -15.50600000  *
    52       C         19.64200000  *  -7.39300000  * -16.68900000  *
    53       O         21.01000000  *  -7.12900000  * -16.39100000  *
    54       C         14.80800000  *  -4.38400000  * -18.12200000  *
    55       O         15.16600000  *  -3.29400000  * -17.68700000  *
    56       C         13.72100000  *  -4.47400000  * -19.16500000  *
    57       C         31.92500000  *   5.92800000  * -12.18400000  *
    58       O         32.78800000  *   5.04800000  * -11.46400000  *
    59       C         34.17400000  *   5.39100000  * -11.65700000  *
    60       C         34.42300000  *   6.71700000  * -10.93800000  *
    61       C         33.53200000  *   7.79100000  * -11.57600000  *
    62       C         32.05800000  *   7.36700000  * -11.64100000  *
    63       O         31.34600000  *   8.29000000  * -12.48700000  *
    64       O         33.62400000  *   9.02000000  * -10.83900000  *
    65       O         34.09200000  *   6.62600000  *  -9.54200000  *
    66       C         35.01000000  *   4.23500000  * -11.11200000  *
    67       O         34.90000000  *   3.12300000  * -12.00600000  *
    68       H         21.54700000  *  -7.61200000  * -17.04100000  *
    69       H         27.82200000  *   2.22100000  * -12.70700000  *
    70       H         30.01000000  *   2.44600000  * -14.83500000  *
    71       H         30.15900000  *   0.62900000  * -12.48700000  *
    72       H         30.37900000  *   2.92900000  * -11.83300000  *
    73       H         32.00200000  *   2.88500000  * -14.11800000  *
    74       H         30.38300000  *   5.05600000  * -14.01700000  *
    75       H         28.16900000  *   4.49500000  * -11.95000000  *
    76       H         28.32000000  *   6.89000000  * -12.41000000  *
    77       H         26.92100000  *   6.22100000  * -13.27000000  *
    78       H         29.32700000  *   7.21400000  * -14.25400000  *
    79       H         30.74000000  *  -1.41700000  * -12.77800000  *
    80       H         31.61400000  *  -1.71300000  * -14.29200000  *
    81       H         29.89200000  *  -2.17500000  * -14.14200000  *
    82       H         24.05700000  *  -0.37900000  * -16.14400000  *
    83       H         23.45100000  *   2.42500000  * -15.08000000  *
    84       H         23.44000000  *   1.37500000  * -17.88000000  *
    85       H         25.87900000  *   1.48800000  * -16.70400000  *
    86       H         25.10500000  *   3.98400000  * -15.61200000  *
    87       H         25.75500000  *   2.32700000  * -13.76900000  *
    88       H         26.13100000  *  -0.47300000  * -15.04400000  *
    89       H         27.46300000  *  -0.38400000  * -13.00500000  *
    90       H         25.98200000  *  -1.30000000  * -12.67800000  *
    91       H         25.08000000  *   0.62400000  * -11.84500000  *
    92       H         22.32800000  *   2.44200000  * -19.38600000  *
    93       H         22.35200000  *   4.20800000  * -19.21200000  *
    94       H         20.91500000  *   3.27000000  * -18.70500000  *
    95       H         18.84800000  *  -2.85800000  * -15.29100000  *
    96       H         21.65500000  *  -4.01500000  * -14.83200000  *
    97       H         19.55000000  *  -3.51200000  * -12.76800000  *
    98       H         20.65200000  *  -1.37300000  * -13.64400000  *
    99       H         22.98200000  *  -2.92700000  * -13.41900000  *
   100       H         22.66400000  *  -1.85100000  * -15.88500000  *
   101       H         19.78400000  *  -0.72900000  * -15.92500000  *
   102       H         20.99100000  *   0.59700000  * -17.53100000  *
   103       H         20.16100000  *  -0.67200000  * -18.44200000  *
   104       H         22.10100000  *  -1.87000000  * -18.38500000  *
   105       H         19.59400000  *  -4.66900000  * -10.94000000  *
   106       H         21.17600000  *  -5.28600000  * -10.43600000  *
   107       H         20.05000000  *  -6.34200000  * -11.33900000  *
   108       H         15.62000000  *  -7.78500000  * -16.22700000  *
   109       H         17.33000000  *  -7.45200000  * -18.35500000  *
   110       H         14.80100000  *  -6.43300000  * -18.08700000  *
   111       H         17.11200000  *  -3.92600000  * -16.67600000  *
   112       H         18.22300000  *  -5.00200000  * -14.58000000  *
   113       H         19.23900000  *  -7.05100000  * -14.63500000  *
   114       H         19.40900000  *  -6.95300000  * -17.66300000  *
   115       H         19.52900000  *  -8.47900000  * -16.77400000  *
   116       H         13.58200000  *  -5.49500000  * -19.53000000  *
   117       H         13.99900000  *  -3.84400000  * -20.01600000  *
   118       H         12.78000000  *  -4.12100000  * -18.73600000  *
   119       H         32.17500000  *   5.91700000  * -13.25200000  *
   120       H         34.36900000  *   5.48700000  * -12.73300000  *
   121       H         35.47400000  *   7.01800000  * -10.99700000  *
   122       H         33.88800000  *   8.01200000  * -12.58900000  *
   123       H         31.59800000  *   7.43900000  * -10.64700000  *
   124       H         31.64100000  *   9.17900000  * -12.20400000  *
   125       H         33.75100000  *   8.76100000  *  -9.90200000  *
   126       H         33.37900000  *   5.96100000  *  -9.45300000  *
   127       H         34.65700000  *   3.90000000  * -10.13200000  *
   128       H         36.06800000  *   4.50500000  * -11.04100000  *
   129       H         33.94200000  *   2.99800000  * -12.17600000  *
 


          CARTESIAN COORDINATES 

    NO.       ATOM         X         Y         Z

     1         C       28.1820    2.5280  -13.6950
     2         C       29.7040    2.2690  -13.7960
     3         N       30.0790    0.8810  -13.4650
     4         C       30.4970    3.2240  -12.8840
     5         O       31.9090    3.0860  -13.1680
     6         C       30.0460    4.6860  -13.0410
     7         O       30.5690    5.5170  -11.9920
     8         C       28.5110    4.7740  -12.9550
     9         O       27.8880    3.9040  -13.9030
    10         C       28.0150    6.2110  -13.2130
    11         O       28.5010    6.7350  -14.4490
    12         C       30.2450   -0.0920  -14.4180
    13         O       30.1110    0.0970  -15.6230
    14         C       30.6460   -1.4330  -13.8670
    15         C       23.6730    0.2940  -15.3650
    16         C       23.9070    1.7540  -15.8190
    17         N       23.2740    2.0250  -17.1180
    18         C       25.4230    2.0500  -15.8790
    19         O       25.6550    3.4300  -16.1950
    20         C       26.1190    1.6550  -14.5570
    21         O       27.5380    1.7530  -14.7110
    22         C       25.7630    0.1880  -14.2480
    23         O       24.3440    0.0380  -14.1360
    24         C       26.3750   -0.3100  -12.9340
    25         O       26.0560    0.5650  -11.8520
    26         C       22.5640    3.1740  -17.3600
    27         O       22.3600    4.0390  -16.5140
    28         C       22.0080    3.2760  -18.7560
    29         C       19.7860   -3.3180  -15.6290
    30         C       20.8280   -3.3830  -14.4830
    31         N       20.2920   -3.9990  -13.2560
    32         C       21.4070   -1.9840  -14.1550
    33         O       22.4950   -2.1030  -13.2260
    34         C       21.8520   -1.2610  -15.4390
    35         O       22.2660    0.0840  -15.1740
    36         C       20.6450   -1.2240  -16.3930
    37         O       20.2830   -2.5630  -16.7380
    38         C       20.9430   -0.4810  -17.7000
    39         O       22.1850   -0.9030  -18.2690
    40         C       21.0560   -4.8800  -12.5210
    41         O       22.1510   -5.2930  -12.8860
    42         C       20.4230   -5.3210  -11.2280
    43         C       16.5760   -7.3740  -16.5690
    44         O       16.9250   -8.0900  -17.7440
    45         C       16.3800   -5.9010  -16.9090
    46         N       15.3060   -5.6200  -17.7430
    47         C       17.2370   -4.9780  -16.4450
    48         C       18.4380   -5.3240  -15.6060
    49         O       19.5550   -4.6280  -16.1420
    50         C       18.7180   -6.8550  -15.5820
    51         O       17.4940   -7.6040  -15.5060
    52         C       19.6420   -7.3930  -16.6890
    53         O       21.0100   -7.1290  -16.3910
    54         C       14.8080   -4.3840  -18.1220
    55         O       15.1660   -3.2940  -17.6870
    56         C       13.7210   -4.4740  -19.1650
    57         C       31.9250    5.9280  -12.1840
    58         O       32.7880    5.0480  -11.4640
    59         C       34.1740    5.3910  -11.6570
    60         C       34.4230    6.7170  -10.9380
    61         C       33.5320    7.7910  -11.5760
    62         C       32.0580    7.3670  -11.6410
    63         O       31.3460    8.2900  -12.4870
    64         O       33.6240    9.0200  -10.8390
    65         O       34.0920    6.6260   -9.5420
    66         C       35.0100    4.2350  -11.1120
    67         O       34.9000    3.1230  -12.0060
    68         H       21.5470   -7.6120  -17.0410
    69         H       27.8220    2.2210  -12.7070
    70         H       30.0100    2.4460  -14.8350
    71         H       30.1590    0.6290  -12.4870
    72         H       30.3790    2.9290  -11.8330
    73         H       32.0020    2.8850  -14.1180
    74         H       30.3830    5.0560  -14.0170
    75         H       28.1690    4.4950  -11.9500
    76         H       28.3200    6.8900  -12.4100
    77         H       26.9210    6.2210  -13.2700
    78         H       29.3270    7.2140  -14.2540
    79         H       30.7400   -1.4170  -12.7780
    80         H       31.6140   -1.7130  -14.2920
    81         H       29.8920   -2.1750  -14.1420
    82         H       24.0570   -0.3790  -16.1440
    83         H       23.4510    2.4250  -15.0800
    84         H       23.4400    1.3750  -17.8800
    85         H       25.8790    1.4880  -16.7040
    86         H       25.1050    3.9840  -15.6120
    87         H       25.7550    2.3270  -13.7690
    88         H       26.1310   -0.4730  -15.0440
    89         H       27.4630   -0.3840  -13.0050
    90         H       25.9820   -1.3000  -12.6780
    91         H       25.0800    0.6240  -11.8450
    92         H       22.3280    2.4420  -19.3860
    93         H       22.3520    4.2080  -19.2120
    94         H       20.9150    3.2700  -18.7050
    95         H       18.8480   -2.8580  -15.2910
    96         H       21.6550   -4.0150  -14.8320
    97         H       19.5500   -3.5120  -12.7680
    98         H       20.6520   -1.3730  -13.6440
    99         H       22.9820   -2.9270  -13.4190
   100         H       22.6640   -1.8510  -15.8850
   101         H       19.7840   -0.7290  -15.9250
   102         H       20.9910    0.5970  -17.5310
   103         H       20.1610   -0.6720  -18.4420
   104         H       22.1010   -1.8700  -18.3850
   105         H       19.5940   -4.6690  -10.9400
   106         H       21.1760   -5.2860  -10.4360
   107         H       20.0500   -6.3420  -11.3390
   108         H       15.6200   -7.7850  -16.2270
   109         H       17.3300   -7.4520  -18.3550
   110         H       14.8010   -6.4330  -18.0870
   111         H       17.1120   -3.9260  -16.6760
   112         H       18.2230   -5.0020  -14.5800
   113         H       19.2390   -7.0510  -14.6350
   114         H       19.4090   -6.9530  -17.6630
   115         H       19.5290   -8.4790  -16.7740
   116         H       13.5820   -5.4950  -19.5300
   117         H       13.9990   -3.8440  -20.0160
   118         H       12.7800   -4.1210  -18.7360
   119         H       32.1750    5.9170  -13.2520
   120         H       34.3690    5.4870  -12.7330
   121         H       35.4740    7.0180  -10.9970
   122         H       33.8880    8.0120  -12.5890
   123         H       31.5980    7.4390  -10.6470
   124         H       31.6410    9.1790  -12.2040
   125         H       33.7510    8.7610   -9.9020
   126         H       33.3790    5.9610   -9.4530
   127         H       34.6570    3.9000  -10.1320
   128         H       36.0680    4.5050  -11.0410
   129         H       33.9420    2.9980  -12.1760

  H: (AM1): M.J.S. DEWAR ET AL, J. AM. CHEM. SOC. 107 3902-3909 (1985)
  C: (AM1): M.J.S. DEWAR ET AL, J. AM. CHEM. SOC. 107 3902-3909 (1985)
  N: (AM1): M.J.S. DEWAR ET AL, J. AM. CHEM. SOC. 107 3902-3909 (1985)
  O: (AM1): M.J.S. DEWAR ET AL, J. AM. CHEM. SOC. 107 3902-3909 (1985)

           Empirical Formula: C38 H62 N4 O25  =   129 atoms



      MOLECULAR POINT GROUP   :   C1  


      RHF CALCULATION, NO. OF DOUBLY OCCUPIED LEVELS = 192


          Geometry optimization using EF

          DIAGONAL MATRIX USED AS START HESSIAN

 CYCLE:     1 TIME:   0.461 TIME LEFT:  2.00D  GRAD.:   286.188 HEAT: -1051.606
 CYCLE:     2 TIME:   0.602 TIME LEFT:  2.00D  GRAD.:   268.879 HEAT: -1068.234
 CYCLE:     3 TIME:   0.648 TIME LEFT:  2.00D  GRAD.:   137.457 HEAT: -1079.642
 CYCLE:     4 TIME:   0.324 TIME LEFT:  2.00D  GRAD.:   180.358 HEAT: -1081.594
 CYCLE:     5 TIME:   0.324 TIME LEFT:  2.00D  GRAD.:   141.999 HEAT: -1086.569
 CYCLE:     6 TIME:   0.574 TIME LEFT:  2.00D  GRAD.:    74.123 HEAT: -1090.591
 CYCLE:     7 TIME:   0.555 TIME LEFT:  2.00D  GRAD.:    96.613 HEAT: -1090.947
 CYCLE:     8 TIME:   0.289 TIME LEFT:  2.00D  GRAD.:    65.288 HEAT: -1092.162
 CYCLE:     9 TIME:   0.305 TIME LEFT:  2.00D  GRAD.:    62.427 HEAT: -1092.939
 CYCLE:    10 TIME:   0.309 TIME LEFT:  2.00D  GRAD.:    79.501 HEAT: -1093.298
 CYCLE:    11 TIME:   0.293 TIME LEFT:  2.00D  GRAD.:    66.989 HEAT: -1094.083
 CYCLE:    12 TIME:   0.297 TIME LEFT:  2.00D  GRAD.:    85.637 HEAT: -1094.217
 CYCLE:    13 TIME:   0.289 TIME LEFT:  2.00D  GRAD.:    99.107 HEAT: -1094.337
 CYCLE:    14 TIME:   0.305 TIME LEFT:  2.00D  GRAD.:    65.514 HEAT: -1095.215
 CYCLE:    15 TIME:   0.309 TIME LEFT:  2.00D  GRAD.:    75.284 HEAT: -1095.518
 CYCLE:    16 TIME:   0.293 TIME LEFT:  2.00D  GRAD.:    58.585 HEAT: -1096.229
 CYCLE:    17 TIME:   0.742 TIME LEFT:  2.00D  GRAD.:    37.162 HEAT: -1096.812
 CYCLE:    18 TIME:   0.953 TIME LEFT:  2.00D  GRAD.:    30.493 HEAT: -1097.023
 CYCLE:    19 TIME:   0.484 TIME LEFT:  2.00D  GRAD.:    34.527 HEAT: -1097.158
 CYCLE:    20 TIME:   0.293 TIME LEFT:  2.00D  GRAD.:    16.867 HEAT: -1097.457
 CYCLE:    21 TIME:   0.297 TIME LEFT:  2.00D  GRAD.:    17.391 HEAT: -1097.748
 CYCLE:    22 TIME:   0.348 TIME LEFT:  2.00D  GRAD.:    33.154 HEAT: -1098.215
 CYCLE:    23 TIME:   0.301 TIME LEFT:  2.00D  GRAD.:    24.579 HEAT: -1098.988
 CYCLE:    24 TIME:   0.312 TIME LEFT:  2.00D  GRAD.:    82.177 HEAT: -1099.301
 CYCLE:    25 TIME:   0.309 TIME LEFT:  2.00D  GRAD.:    88.744 HEAT: -1099.792
 CYCLE:    26 TIME:   0.562 TIME LEFT:  2.00D  GRAD.:    93.173 HEAT: -1100.142
 CYCLE:    27 TIME:   0.309 TIME LEFT:  2.00D  GRAD.:    59.794 HEAT: -1101.118
 CYCLE:    28 TIME:   0.574 TIME LEFT:  2.00D  GRAD.:    41.888 HEAT: -1101.793
 CYCLE:    29 TIME:   0.309 TIME LEFT:  2.00D  GRAD.:    33.349 HEAT: -1101.997
 CYCLE:    30 TIME:   0.551 TIME LEFT:  2.00D  GRAD.:    24.380 HEAT: -1102.200
 CYCLE:    31 TIME:   0.289 TIME LEFT:  2.00D  GRAD.:    16.796 HEAT: -1102.319
 CYCLE:    32 TIME:   0.301 TIME LEFT:  2.00D  GRAD.:    17.939 HEAT: -1102.426
 CYCLE:    33 TIME:   0.285 TIME LEFT:  2.00D  GRAD.:    18.765 HEAT: -1102.568
 CYCLE:    34 TIME:   0.285 TIME LEFT:  2.00D  GRAD.:    13.704 HEAT: -1102.820
 CYCLE:    35 TIME:   0.297 TIME LEFT:  2.00D  GRAD.:    47.237 HEAT: -1102.861
 CYCLE:    36 TIME:   0.297 TIME LEFT:  2.00D  GRAD.:    19.182 HEAT: -1103.572
 CYCLE:    37 TIME:   1.082 TIME LEFT:  2.00D  GRAD.:    21.083 HEAT: -1103.606
 CYCLE:    38 TIME:   0.289 TIME LEFT:  2.00D  GRAD.:     9.486 HEAT: -1103.761
 CYCLE:    39 TIME:   0.285 TIME LEFT:  2.00D  GRAD.:    20.953 HEAT: -1103.802
 CYCLE:    40 TIME:   0.293 TIME LEFT:  2.00D  GRAD.:    11.391 HEAT: -1103.993
 CYCLE:    41 TIME:   0.293 TIME LEFT:  2.00D  GRAD.:    24.019 HEAT: -1104.021
 CYCLE:    42 TIME:   0.312 TIME LEFT:  2.00D  GRAD.:    14.051 HEAT: -1104.300
 CYCLE:    43 TIME:   0.559 TIME LEFT:  2.00D  GRAD.:    20.244 HEAT: -1104.316
 CYCLE:    44 TIME:   0.309 TIME LEFT:  2.00D  GRAD.:    10.789 HEAT: -1104.518
 CYCLE:    45 TIME:   0.797 TIME LEFT:  2.00D  GRAD.:    10.840 HEAT: -1104.559
 CYCLE:    46 TIME:   0.297 TIME LEFT:  2.00D  GRAD.:     6.831 HEAT: -1104.633
 CYCLE:    47 TIME:   0.285 TIME LEFT:  2.00D  GRAD.:    15.068 HEAT: -1104.704
 CYCLE:    48 TIME:   0.266 TIME LEFT:  2.00D  GRAD.:     8.098 HEAT: -1104.856
 CYCLE:    49 TIME:   0.297 TIME LEFT:  2.00D  GRAD.:    26.552 HEAT: -1104.904
 CYCLE:    50 TIME:   0.305 TIME LEFT:  2.00D  GRAD.:    13.990 HEAT: -1105.246
 CYCLE:    51 TIME:   1.051 TIME LEFT:  2.00D  GRAD.:     8.685 HEAT: -1105.309
 CYCLE:    52 TIME:   0.332 TIME LEFT:  2.00D  GRAD.:     7.355 HEAT: -1105.364
 CYCLE:    53 TIME:   0.293 TIME LEFT:  2.00D  GRAD.:     8.222 HEAT: -1105.434
 CYCLE:    54 TIME:   0.289 TIME LEFT:  2.00D  GRAD.:     7.996 HEAT: -1105.538
 CYCLE:    55 TIME:   0.285 TIME LEFT:  2.00D  GRAD.:    12.203 HEAT: -1105.665
 CYCLE:    56 TIME:   0.297 TIME LEFT:  2.00D  GRAD.:    11.705 HEAT: -1105.861
 CYCLE:    57 TIME:   0.293 TIME LEFT:  2.00D  GRAD.:    22.047 HEAT: -1106.053
 CYCLE:    58 TIME:   0.316 TIME LEFT:  2.00D  GRAD.:    22.350 HEAT: -1106.380
 CYCLE:    59 TIME:   0.332 TIME LEFT:  2.00D  GRAD.:    47.726 HEAT: -1106.435
 CYCLE:    60 TIME:   0.391 TIME LEFT:  2.00D  GRAD.:    53.225 HEAT: -1106.653
 CYCLE:    61 TIME:   1.512 TIME LEFT:  2.00D  GRAD.:    34.576 HEAT: -1107.130
 CYCLE:    62 TIME:   0.680 TIME LEFT:  2.00D  GRAD.:    14.791 HEAT: -1107.325
 CYCLE:    63 TIME:   0.633 TIME LEFT:  2.00D  GRAD.:    16.787 HEAT: -1107.348
 CYCLE:    64 TIME:   0.414 TIME LEFT:  2.00D  GRAD.:     6.903 HEAT: -1107.417
 CYCLE:    65 TIME:   0.547 TIME LEFT:  2.00D  GRAD.:    11.415 HEAT: -1107.424
 CYCLE:    66 TIME:   0.297 TIME LEFT:  2.00D  GRAD.:     4.110 HEAT: -1107.470
 CYCLE:    67 TIME:   0.309 TIME LEFT:  2.00D  GRAD.:     9.363 HEAT: -1107.507
 CYCLE:    68 TIME:   0.285 TIME LEFT:  2.00D  GRAD.:     5.925 HEAT: -1107.596
 CYCLE:    69 TIME:   0.309 TIME LEFT:  2.00D  GRAD.:    18.161 HEAT: -1107.659
 CYCLE:    70 TIME:   0.328 TIME LEFT:  2.00D  GRAD.:    12.706 HEAT: -1107.853
 CYCLE:    71 TIME:   0.855 TIME LEFT:  2.00D  GRAD.:    12.161 HEAT: -1107.879
 CYCLE:    72 TIME:   0.301 TIME LEFT:  2.00D  GRAD.:     9.976 HEAT: -1107.943
 CYCLE:    73 TIME:   0.309 TIME LEFT:  2.00D  GRAD.:    14.672 HEAT: -1107.957
 CYCLE:    74 TIME:   0.297 TIME LEFT:  2.00D  GRAD.:    10.378 HEAT: -1108.068
 CYCLE:    75 TIME:   0.781 TIME LEFT:  2.00D  GRAD.:     5.862 HEAT: -1108.100
 CYCLE:    76 TIME:   0.309 TIME LEFT:  2.00D  GRAD.:     5.130 HEAT: -1108.125
 CYCLE:    77 TIME:   0.289 TIME LEFT:  2.00D  GRAD.:     5.082 HEAT: -1108.159
 CYCLE:    78 TIME:   0.285 TIME LEFT:  2.00D  GRAD.:     5.178 HEAT: -1108.209
 CYCLE:    79 TIME:   0.297 TIME LEFT:  2.00D  GRAD.:     6.822 HEAT: -1108.274
 CYCLE:    80 TIME:   0.309 TIME LEFT:  2.00D  GRAD.:     7.595 HEAT: -1108.368
 CYCLE:    81 TIME:   0.316 TIME LEFT:  2.00D  GRAD.:    10.696 HEAT: -1108.489
 CYCLE:    82 TIME:   0.312 TIME LEFT:  2.00D  GRAD.:    16.004 HEAT: -1108.635
 CYCLE:    83 TIME:   0.328 TIME LEFT:  2.00D  GRAD.:    19.650 HEAT: -1108.847
 CYCLE:    84 TIME:   0.316 TIME LEFT:  2.00D  GRAD.:    34.349 HEAT: -1108.906
 CYCLE:    85 TIME:   0.328 TIME LEFT:  2.00D  GRAD.:    33.991 HEAT: -1109.259
 CYCLE:    86 TIME:   1.129 TIME LEFT:  2.00D  GRAD.:    17.747 HEAT: -1109.515
 CYCLE:    87 TIME:   0.633 TIME LEFT:  2.00D  GRAD.:     8.702 HEAT: -1109.599
 CYCLE:    88 TIME:   0.566 TIME LEFT:  2.00D  GRAD.:     7.394 HEAT: -1109.619
 CYCLE:    89 TIME:   0.289 TIME LEFT:  2.00D  GRAD.:     4.991 HEAT: -1109.646
 CYCLE:    90 TIME:   0.297 TIME LEFT:  2.00D  GRAD.:     8.167 HEAT: -1109.666
 CYCLE:    91 TIME:   0.301 TIME LEFT:  2.00D  GRAD.:     4.966 HEAT: -1109.706
 CYCLE:    92 TIME:   0.305 TIME LEFT:  2.00D  GRAD.:    13.100 HEAT: -1109.728
 CYCLE:    93 TIME:   0.297 TIME LEFT:  2.00D  GRAD.:     6.175 HEAT: -1109.822
 CYCLE:    94 TIME:   1.156 TIME LEFT:  2.00D  GRAD.:     5.345 HEAT: -1109.835
 CYCLE:    95 TIME:   0.289 TIME LEFT:  2.00D  GRAD.:     3.452 HEAT: -1109.854
 CYCLE:    96 TIME:   0.320 TIME LEFT:  2.00D  GRAD.:     6.249 HEAT: -1109.879
 CYCLE:    97 TIME:   0.309 TIME LEFT:  2.00D  GRAD.:     4.268 HEAT: -1109.929
 CYCLE:    98 TIME:   0.344 TIME LEFT:  2.00D  GRAD.:    11.743 HEAT: -1109.990
 CYCLE:    99 TIME:   0.367 TIME LEFT:  2.00D  GRAD.:     9.124 HEAT: -1110.134
 CYCLE:   100 TIME:   0.375 TIME LEFT:  2.00D  GRAD.:    33.279 HEAT: -1110.135
 CYCLE:   101 TIME:   0.359 TIME LEFT:  2.00D  GRAD.:    28.199 HEAT: -1110.454
 CYCLE:   102 TIME:   1.082 TIME LEFT:  2.00D  GRAD.:    17.791 HEAT: -1110.619
 CYCLE:   103 TIME:   0.535 TIME LEFT:  2.00D  GRAD.:     9.747 HEAT: -1110.679
 CYCLE:   104 TIME:   0.281 TIME LEFT:  2.00D  GRAD.:    12.140 HEAT: -1110.703
 CYCLE:   105 TIME:   0.301 TIME LEFT:  2.00D  GRAD.:     7.080 HEAT: -1110.756
 CYCLE:   106 TIME:   0.285 TIME LEFT:  2.00D  GRAD.:    11.118 HEAT: -1110.791
 CYCLE:   107 TIME:   0.301 TIME LEFT:  2.00D  GRAD.:     9.041 HEAT: -1110.882
 CYCLE:   108 TIME:   0.301 TIME LEFT:  2.00D  GRAD.:    14.484 HEAT: -1110.963
 CYCLE:   109 TIME:   0.305 TIME LEFT:  2.00D  GRAD.:    18.663 HEAT: -1111.104
 CYCLE:   110 TIME:   0.301 TIME LEFT:  2.00D  GRAD.:    23.434 HEAT: -1111.301
 CYCLE:   111 TIME:   0.305 TIME LEFT:  2.00D  GRAD.:    43.711 HEAT: -1111.356
 CYCLE:   112 TIME:   0.312 TIME LEFT:  2.00D  GRAD.:    38.284 HEAT: -1111.844
 CYCLE:   113 TIME:   0.824 TIME LEFT:  2.00D  GRAD.:    39.507 HEAT: -1111.905
 CYCLE:   114 TIME:   0.293 TIME LEFT:  2.00D  GRAD.:    28.938 HEAT: -1112.173
 CYCLE:   115 TIME:   0.559 TIME LEFT:  2.00D  GRAD.:    16.017 HEAT: -1112.357
 CYCLE:   116 TIME:   0.309 TIME LEFT:  2.00D  GRAD.:    11.947 HEAT: -1112.441
 CYCLE:   117 TIME:   0.328 TIME LEFT:  2.00D  GRAD.:    16.321 HEAT: -1112.525
 CYCLE:   118 TIME:   0.703 TIME LEFT:  2.00D  GRAD.:    13.965 HEAT: -1112.700
 CYCLE:   119 TIME:   0.367 TIME LEFT:  2.00D  GRAD.:    23.618 HEAT: -1112.843
 CYCLE:   120 TIME:   0.367 TIME LEFT:  2.00D  GRAD.:    24.532 HEAT: -1113.054
 CYCLE:   121 TIME:   0.848 TIME LEFT:  2.00D  GRAD.:    16.067 HEAT: -1113.188
 CYCLE:   122 TIME:   0.375 TIME LEFT:  2.00D  GRAD.:     9.394 HEAT: -1113.293
 CYCLE:   123 TIME:   0.336 TIME LEFT:  2.00D  GRAD.:    18.400 HEAT: -1113.346
 CYCLE:   124 TIME:   0.371 TIME LEFT:  2.00D  GRAD.:     9.424 HEAT: -1113.511
 CYCLE:   125 TIME:   0.336 TIME LEFT:  2.00D  GRAD.:    28.004 HEAT: -1113.545
 CYCLE:   126 TIME:   0.320 TIME LEFT:  2.00D  GRAD.:    18.309 HEAT: -1113.872
 CYCLE:   127 TIME:   1.129 TIME LEFT:  2.00D  GRAD.:    17.367 HEAT: -1113.915
 CYCLE:   128 TIME:   0.340 TIME LEFT:  2.00D  GRAD.:     7.779 HEAT: -1114.036
 CYCLE:   129 TIME:   0.660 TIME LEFT:  2.00D  GRAD.:    15.753 HEAT: -1114.052
 CYCLE:   130 TIME:   0.316 TIME LEFT:  2.00D  GRAD.:     7.228 HEAT: -1114.163
 CYCLE:   131 TIME:   0.371 TIME LEFT:  2.00D  GRAD.:    21.093 HEAT: -1114.190
 CYCLE:   132 TIME:   0.336 TIME LEFT:  2.00D  GRAD.:     8.794 HEAT: -1114.411
 CYCLE:   133 TIME:   0.855 TIME LEFT:  2.00D  GRAD.:    14.669 HEAT: -1114.418
 CYCLE:   134 TIME:   0.312 TIME LEFT:  2.00D  GRAD.:     7.087 HEAT: -1114.520
 CYCLE:   135 TIME:   0.305 TIME LEFT:  2.00D  GRAD.:    14.127 HEAT: -1114.546
 CYCLE:   136 TIME:   0.312 TIME LEFT:  2.00D  GRAD.:     9.222 HEAT: -1114.661
 CYCLE:   137 TIME:   0.590 TIME LEFT:  2.00D  GRAD.:    13.366 HEAT: -1114.673
 CYCLE:   138 TIME:   0.309 TIME LEFT:  2.00D  GRAD.:     9.190 HEAT: -1114.748
 CYCLE:   139 TIME:   0.316 TIME LEFT:  2.00D  GRAD.:    16.081 HEAT: -1114.755
 CYCLE:   140 TIME:   0.348 TIME LEFT:  2.00D  GRAD.:    10.654 HEAT: -1114.866
 CYCLE:   141 TIME:   0.836 TIME LEFT:  2.00D  GRAD.:     6.500 HEAT: -1114.901
 CYCLE:   142 TIME:   0.305 TIME LEFT:  2.00D  GRAD.:     4.679 HEAT: -1114.926
 CYCLE:   143 TIME:   0.305 TIME LEFT:  2.00D  GRAD.:     5.832 HEAT: -1114.958
 CYCLE:   144 TIME:   0.312 TIME LEFT:  2.00D  GRAD.:     5.258 HEAT: -1115.005
 CYCLE:   145 TIME:   0.309 TIME LEFT:  2.00D  GRAD.:     6.950 HEAT: -1115.066
 CYCLE:   146 TIME:   0.309 TIME LEFT:  2.00D  GRAD.:    11.131 HEAT: -1115.130
 CYCLE:   147 TIME:   0.309 TIME LEFT:  2.00D  GRAD.:    11.584 HEAT: -1115.239
 CYCLE:   148 TIME:   0.812 TIME LEFT:  2.00D  GRAD.:    14.764 HEAT: -1115.247
 CYCLE:   149 TIME:   0.289 TIME LEFT:  2.00D  GRAD.:    10.529 HEAT: -1115.304
 CYCLE:   150 TIME:   0.543 TIME LEFT:  2.00D  GRAD.:    10.563 HEAT: -1115.320
 CYCLE:   151 TIME:   0.289 TIME LEFT:  2.00D  GRAD.:     7.445 HEAT: -1115.357
 CYCLE:   152 TIME:   0.285 TIME LEFT:  2.00D  GRAD.:    12.434 HEAT: -1115.366
 CYCLE:   153 TIME:   0.301 TIME LEFT:  2.00D  GRAD.:     6.711 HEAT: -1115.425
 CYCLE:   154 TIME:   0.562 TIME LEFT:  2.00D  GRAD.:    10.481 HEAT: -1115.428
 CYCLE:   155 TIME:   0.285 TIME LEFT:  2.00D  GRAD.:     5.725 HEAT: -1115.470
 CYCLE:   156 TIME:   0.289 TIME LEFT:  2.00D  GRAD.:     9.287 HEAT: -1115.485
 CYCLE:   157 TIME:   0.293 TIME LEFT:  2.00D  GRAD.:     6.004 HEAT: -1115.535
 CYCLE:   158 TIME:   0.289 TIME LEFT:  2.00D  GRAD.:    11.967 HEAT: -1115.540
 CYCLE:   159 TIME:   0.289 TIME LEFT:  2.00D  GRAD.:     8.018 HEAT: -1115.617
 CYCLE:   160 TIME:   0.797 TIME LEFT:  2.00D  GRAD.:     5.500 HEAT: -1115.638
 CYCLE:   161 TIME:   0.293 TIME LEFT:  2.00D  GRAD.:     5.852 HEAT: -1115.653
 CYCLE:   162 TIME:   0.289 TIME LEFT:  2.00D  GRAD.:     5.145 HEAT: -1115.678
 CYCLE:   163 TIME:   0.289 TIME LEFT:  2.00D  GRAD.:     7.367 HEAT: -1115.707
 CYCLE:   164 TIME:   0.293 TIME LEFT:  2.00D  GRAD.:     7.248 HEAT: -1115.756
 CYCLE:   165 TIME:   0.293 TIME LEFT:  2.00D  GRAD.:    12.574 HEAT: -1115.798
 CYCLE:   166 TIME:   0.336 TIME LEFT:  2.00D  GRAD.:     9.282 HEAT: -1115.881
 CYCLE:   167 TIME:   1.418 TIME LEFT:  2.00D  GRAD.:    12.118 HEAT: -1115.883
 CYCLE:   168 TIME:   0.316 TIME LEFT:  2.00D  GRAD.:     4.604 HEAT: -1115.932
 CYCLE:   169 TIME:   0.527 TIME LEFT:  2.00D  GRAD.:     7.923 HEAT: -1115.936
 CYCLE:   170 TIME:   0.348 TIME LEFT:  2.00D  GRAD.:     3.131 HEAT: -1115.963
 CYCLE:   171 TIME:   0.312 TIME LEFT:  2.00D  GRAD.:     8.790 HEAT: -1115.978
 CYCLE:   172 TIME:   0.285 TIME LEFT:  2.00D  GRAD.:     3.987 HEAT: -1116.026
 CYCLE:   173 TIME:   0.289 TIME LEFT:  2.00D  GRAD.:    14.044 HEAT: -1116.035
 CYCLE:   174 TIME:   0.289 TIME LEFT:  2.00D  GRAD.:     5.619 HEAT: -1116.144
 CYCLE:   175 TIME:   1.031 TIME LEFT:  2.00D  GRAD.:     7.832 HEAT: -1116.146
 CYCLE:   176 TIME:   0.312 TIME LEFT:  2.00D  GRAD.:     3.584 HEAT: -1116.172
 CYCLE:   177 TIME:   0.289 TIME LEFT:  2.00D  GRAD.:     7.339 HEAT: -1116.179
 CYCLE:   178 TIME:   0.289 TIME LEFT:  2.00D  GRAD.:     3.257 HEAT: -1116.213
 CYCLE:   179 TIME:   0.301 TIME LEFT:  2.00D  GRAD.:    10.249 HEAT: -1116.223
 CYCLE:   180 TIME:   0.289 TIME LEFT:  2.00D  GRAD.:     4.060 HEAT: -1116.292
 CYCLE:   181 TIME:   1.016 TIME LEFT:  2.00D  GRAD.:     4.266 HEAT: -1116.299
 CYCLE:   182 TIME:   0.289 TIME LEFT:  2.00D  GRAD.:     2.746 HEAT: -1116.312
 CYCLE:   183 TIME:   0.297 TIME LEFT:  2.00D  GRAD.:     3.533 HEAT: -1116.324
 CYCLE:   184 TIME:   0.281 TIME LEFT:  2.00D  GRAD.:     2.893 HEAT: -1116.346
 CYCLE:   185 TIME:   0.301 TIME LEFT:  2.00D  GRAD.:     4.691 HEAT: -1116.382
 CYCLE:   186 TIME:   0.332 TIME LEFT:  2.00D  GRAD.:     4.601 HEAT: -1116.439
 CYCLE:   187 TIME:   0.316 TIME LEFT:  2.00D  GRAD.:     9.879 HEAT: -1116.519
 CYCLE:   188 TIME:   0.336 TIME LEFT:  2.00D  GRAD.:     9.658 HEAT: -1116.663
 CYCLE:   189 TIME:   0.336 TIME LEFT:  2.00D  GRAD.:    23.297 HEAT: -1116.695
 CYCLE:   190 TIME:   0.383 TIME LEFT:  2.00D  GRAD.:    22.554 HEAT: -1116.847
 CYCLE:   191 TIME:   1.152 TIME LEFT:  2.00D  GRAD.:     9.462 HEAT: -1117.002
 CYCLE:   192 TIME:   0.578 TIME LEFT:  2.00D  GRAD.:     8.586 HEAT: -1117.016
 CYCLE:   193 TIME:   0.309 TIME LEFT:  2.00D  GRAD.:     6.809 HEAT: -1117.043
 CYCLE:   194 TIME:   0.547 TIME LEFT:  2.00D  GRAD.:     6.472 HEAT: -1117.052
 CYCLE:   195 TIME:   0.293 TIME LEFT:  2.00D  GRAD.:     4.446 HEAT: -1117.071
 CYCLE:   196 TIME:   0.297 TIME LEFT:  2.00D  GRAD.:     6.431 HEAT: -1117.081
 CYCLE:   197 TIME:   0.309 TIME LEFT:  2.00D  GRAD.:     5.451 HEAT: -1117.102
 CYCLE:   198 TIME:   0.289 TIME LEFT:  2.00D  GRAD.:     7.697 HEAT: -1117.115
 CYCLE:   199 TIME:   0.285 TIME LEFT:  2.00D  GRAD.:     7.098 HEAT: -1117.144
 CYCLE:   200 TIME:   0.297 TIME LEFT:  2.00D  GRAD.:     9.689 HEAT: -1117.161
 CYCLE:   201 TIME:   0.309 TIME LEFT:  2.00D  GRAD.:    11.291 HEAT: -1117.188
 CYCLE:   202 TIME:   0.289 TIME LEFT:  2.00D  GRAD.:    10.616 HEAT: -1117.215
 CYCLE:   203 TIME:   0.305 TIME LEFT:  2.00D  GRAD.:    14.171 HEAT: -1117.227
 CYCLE:   204 TIME:   0.293 TIME LEFT:  2.00D  GRAD.:    13.356 HEAT: -1117.255
 CYCLE:   205 TIME:   0.539 TIME LEFT:  2.00D  GRAD.:     9.666 HEAT: -1117.294
 CYCLE:   206 TIME:   0.324 TIME LEFT:  2.00D  GRAD.:     7.348 HEAT: -1117.314
 CYCLE:   207 TIME:   0.406 TIME LEFT:  2.00D  GRAD.:     9.179 HEAT: -1117.323
 CYCLE:   208 TIME:   0.426 TIME LEFT:  2.00D  GRAD.:     6.739 HEAT: -1117.345
 CYCLE:   209 TIME:   0.449 TIME LEFT:  2.00D  GRAD.:     7.548 HEAT: -1117.358
 CYCLE:   210 TIME:   0.301 TIME LEFT:  2.00D  GRAD.:     6.439 HEAT: -1117.376
 CYCLE:   211 TIME:   0.301 TIME LEFT:  2.00D  GRAD.:     8.024 HEAT: -1117.387
 CYCLE:   212 TIME:   0.277 TIME LEFT:  2.00D  GRAD.:     5.488 HEAT: -1117.410
 CYCLE:   213 TIME:   0.547 TIME LEFT:  2.00D  GRAD.:     6.941 HEAT: -1117.415
 CYCLE:   214 TIME:   0.289 TIME LEFT:  2.00D  GRAD.:     3.300 HEAT: -1117.436
 CYCLE:   215 TIME:   0.551 TIME LEFT:  2.00D  GRAD.:     5.228 HEAT: -1117.439
 CYCLE:   216 TIME:   0.289 TIME LEFT:  2.00D  GRAD.:     1.958 HEAT: -1117.453
 CYCLE:   217 TIME:   0.309 TIME LEFT:  2.00D  GRAD.:     3.422 HEAT: -1117.469
 CYCLE:   218 TIME:   0.293 TIME LEFT:  2.00D  GRAD.:     3.525 HEAT: -1117.494
 CYCLE:   219 TIME:   0.320 TIME LEFT:  2.00D  GRAD.:     4.703 HEAT: -1117.540
 CYCLE:   220 TIME:   0.324 TIME LEFT:  2.00D  GRAD.:     7.135 HEAT: -1117.602
 CYCLE:   221 TIME:   0.352 TIME LEFT:  2.00D  GRAD.:     6.635 HEAT: -1117.699
 CYCLE:   222 TIME:   0.328 TIME LEFT:  2.00D  GRAD.:    13.812 HEAT: -1117.787
 CYCLE:   223 TIME:   0.328 TIME LEFT:  2.00D  GRAD.:    10.498 HEAT: -1117.980
 CYCLE:   224 TIME:   0.340 TIME LEFT:  2.00D  GRAD.:    26.322 HEAT: -1118.013
 CYCLE:   225 TIME:   0.320 TIME LEFT:  2.00D  GRAD.:    28.334 HEAT: -1118.146
 CYCLE:   226 TIME:   0.852 TIME LEFT:  2.00D  GRAD.:    25.856 HEAT: -1118.168
 CYCLE:   227 TIME:   0.312 TIME LEFT:  2.00D  GRAD.:    28.660 HEAT: -1118.215
 CYCLE:   228 TIME:   0.578 TIME LEFT:  2.00D  GRAD.:    13.085 HEAT: -1118.407
 CYCLE:   229 TIME:   0.535 TIME LEFT:  2.00D  GRAD.:     9.198 HEAT: -1118.446
 CYCLE:   230 TIME:   0.535 TIME LEFT:  2.00D  GRAD.:     5.770 HEAT: -1118.468
 CYCLE:   231 TIME:   0.309 TIME LEFT:  2.00D  GRAD.:     8.359 HEAT: -1118.470
 CYCLE:   232 TIME:   0.305 TIME LEFT:  2.00D  GRAD.:     5.193 HEAT: -1118.497
 CYCLE:   233 TIME:   0.336 TIME LEFT:  2.00D  GRAD.:     9.021 HEAT: -1118.497
 CYCLE:   234 TIME:   0.305 TIME LEFT:  2.00D  GRAD.:     6.356 HEAT: -1118.528
 CYCLE:   235 TIME:   0.555 TIME LEFT:  2.00D  GRAD.:     6.684 HEAT: -1118.537
 CYCLE:   236 TIME:   0.289 TIME LEFT:  2.00D  GRAD.:     6.580 HEAT: -1118.552
 CYCLE:   237 TIME:   0.285 TIME LEFT:  2.00D  GRAD.:     6.441 HEAT: -1118.569
 CYCLE:   238 TIME:   0.297 TIME LEFT:  2.00D  GRAD.:     5.506 HEAT: -1118.591
 CYCLE:   239 TIME:   0.535 TIME LEFT:  2.00D  GRAD.:     7.826 HEAT: -1118.594
 CYCLE:   240 TIME:   0.281 TIME LEFT:  2.00D  GRAD.:     2.562 HEAT: -1118.622
 CYCLE:   241 TIME:   0.293 TIME LEFT:  2.00D  GRAD.:     9.285 HEAT: -1118.625
 CYCLE:   242 TIME:   0.285 TIME LEFT:  2.00D  GRAD.:     3.466 HEAT: -1118.671
 CYCLE:   243 TIME:   0.305 TIME LEFT:  2.00D  GRAD.:     9.528 HEAT: -1118.692
 CYCLE:   244 TIME:   0.285 TIME LEFT:  2.00D  GRAD.:     6.827 HEAT: -1118.755
 CYCLE:   245 TIME:   0.297 TIME LEFT:  2.00D  GRAD.:    14.090 HEAT: -1118.755
 CYCLE:   246 TIME:   0.297 TIME LEFT:  2.00D  GRAD.:    10.626 HEAT: -1118.857
 CYCLE:   247 TIME:   1.074 TIME LEFT:  2.00D  GRAD.:     5.743 HEAT: -1118.886
 CYCLE:   248 TIME:   0.383 TIME LEFT:  2.00D  GRAD.:     5.428 HEAT: -1118.897
 CYCLE:   249 TIME:   0.480 TIME LEFT:  2.00D  GRAD.:     6.591 HEAT: -1118.903
 CYCLE:   250 TIME:   0.434 TIME LEFT:  2.00D  GRAD.:     4.923 HEAT: -1118.918
 CYCLE:   251 TIME:   0.297 TIME LEFT:  2.00D  GRAD.:     6.396 HEAT: -1118.927
 CYCLE:   252 TIME:   0.289 TIME LEFT:  2.00D  GRAD.:     5.408 HEAT: -1118.947
 CYCLE:   253 TIME:   0.285 TIME LEFT:  2.00D  GRAD.:     7.142 HEAT: -1118.960
 CYCLE:   254 TIME:   0.289 TIME LEFT:  2.00D  GRAD.:     8.804 HEAT: -1118.974
 CYCLE:   255 TIME:   0.285 TIME LEFT:  2.00D  GRAD.:     6.871 HEAT: -1118.999
 CYCLE:   256 TIME:   0.297 TIME LEFT:  2.00D  GRAD.:     4.887 HEAT: -1119.030
 CYCLE:   257 TIME:   1.004 TIME LEFT:  2.00D  GRAD.:     2.533 HEAT: -1119.037
 CYCLE:   258 TIME:   0.293 TIME LEFT:  2.00D  GRAD.:     2.212 HEAT: -1119.043
 CYCLE:   259 TIME:   0.324 TIME LEFT:  2.00D  GRAD.:     5.746 HEAT: -1119.128
 CYCLE:   260 TIME:   0.316 TIME LEFT:  2.00D  GRAD.:     9.499 HEAT: -1119.269
 CYCLE:   261 TIME:   0.320 TIME LEFT:  2.00D  GRAD.:    15.352 HEAT: -1119.386
 CYCLE:   262 TIME:   1.355 TIME LEFT:  2.00D  GRAD.:    17.697 HEAT: -1119.391
 CYCLE:   263 TIME:   0.289 TIME LEFT:  2.00D  GRAD.:    18.908 HEAT: -1119.394
 CYCLE:   264 TIME:   0.289 TIME LEFT:  2.00D  GRAD.:    15.207 HEAT: -1119.435
 CYCLE:   265 TIME:   0.543 TIME LEFT:  2.00D  GRAD.:     9.468 HEAT: -1119.489
 CYCLE:   266 TIME:   0.305 TIME LEFT:  2.00D  GRAD.:     7.109 HEAT: -1119.506
 CYCLE:   267 TIME:   0.293 TIME LEFT:  2.00D  GRAD.:     5.440 HEAT: -1119.524
 CYCLE:   268 TIME:   0.762 TIME LEFT:  2.00D  GRAD.:     3.261 HEAT: -1119.531
 CYCLE:   269 TIME:   0.285 TIME LEFT:  2.00D  GRAD.:     2.786 HEAT: -1119.537
 CYCLE:   270 TIME:   0.320 TIME LEFT:  2.00D  GRAD.:     4.617 HEAT: -1119.594
 CYCLE:   271 TIME:   0.309 TIME LEFT:  2.00D  GRAD.:    14.553 HEAT: -1119.672
 CYCLE:   272 TIME:   0.410 TIME LEFT:  2.00D  GRAD.:    16.134 HEAT: -1119.783
 CYCLE:   273 TIME:   1.363 TIME LEFT:  2.00D  GRAD.:    15.788 HEAT: -1119.808
 CYCLE:   274 TIME:   0.305 TIME LEFT:  2.00D  GRAD.:    14.807 HEAT: -1119.828
 CYCLE:   275 TIME:   0.551 TIME LEFT:  2.00D  GRAD.:     8.963 HEAT: -1119.874
 CYCLE:   276 TIME:   0.316 TIME LEFT:  2.00D  GRAD.:     8.276 HEAT: -1119.887
 CYCLE:   277 TIME:   0.293 TIME LEFT:  2.00D  GRAD.:     3.957 HEAT: -1119.913
 CYCLE:   278 TIME:   0.305 TIME LEFT:  2.00D  GRAD.:     5.348 HEAT: -1119.925
 CYCLE:   279 TIME:   0.293 TIME LEFT:  2.00D  GRAD.:     9.878 HEAT: -1119.925
 CYCLE:   280 TIME:   0.297 TIME LEFT:  2.00D  GRAD.:     4.276 HEAT: -1119.968
 CYCLE:   281 TIME:   0.301 TIME LEFT:  2.00D  GRAD.:     6.599 HEAT: -1119.989
 CYCLE:   282 TIME:   0.305 TIME LEFT:  2.00D  GRAD.:     9.316 HEAT: -1120.020
 CYCLE:   283 TIME:   0.320 TIME LEFT:  2.00D  GRAD.:    13.786 HEAT: -1120.022
 CYCLE:   284 TIME:   0.312 TIME LEFT:  2.00D  GRAD.:     6.102 HEAT: -1120.113
 CYCLE:   285 TIME:   0.309 TIME LEFT:  2.00D  GRAD.:    11.749 HEAT: -1120.132
 CYCLE:   286 TIME:   0.316 TIME LEFT:  2.00D  GRAD.:    12.418 HEAT: -1120.186
 CYCLE:   287 TIME:   1.777 TIME LEFT:  2.00D  GRAD.:     7.286 HEAT: -1120.220
 CYCLE:   288 TIME:   0.289 TIME LEFT:  2.00D  GRAD.:     5.592 HEAT: -1120.239
 CYCLE:   289 TIME:   0.293 TIME LEFT:  2.00D  GRAD.:     4.357 HEAT: -1120.260
 CYCLE:   290 TIME:   0.289 TIME LEFT:  2.00D  GRAD.:     4.028 HEAT: -1120.283
 CYCLE:   291 TIME:   0.320 TIME LEFT:  2.00D  GRAD.:     4.532 HEAT: -1120.324
 CYCLE:   292 TIME:   0.297 TIME LEFT:  2.00D  GRAD.:     6.521 HEAT: -1120.390
 CYCLE:   293 TIME:   0.328 TIME LEFT:  2.00D  GRAD.:     6.566 HEAT: -1120.480
 CYCLE:   294 TIME:   0.320 TIME LEFT:  2.00D  GRAD.:    13.266 HEAT: -1120.536
 CYCLE:   295 TIME:   0.309 TIME LEFT:  2.00D  GRAD.:    13.181 HEAT: -1120.583
 CYCLE:   296 TIME:   1.094 TIME LEFT:  2.00D  GRAD.:    12.117 HEAT: -1120.633
 CYCLE:   297 TIME:   0.305 TIME LEFT:  2.00D  GRAD.:     6.326 HEAT: -1120.684
 CYCLE:   298 TIME:   0.289 TIME LEFT:  2.00D  GRAD.:     5.797 HEAT: -1120.708
 CYCLE:   299 TIME:   0.293 TIME LEFT:  2.00D  GRAD.:     3.558 HEAT: -1120.739
 CYCLE:   300 TIME:   0.305 TIME LEFT:  2.00D  GRAD.:     5.105 HEAT: -1120.777
 CYCLE:   301 TIME:   0.324 TIME LEFT:  2.00D  GRAD.:     7.277 HEAT: -1120.830
 CYCLE:   302 TIME:   0.312 TIME LEFT:  2.00D  GRAD.:     9.418 HEAT: -1120.883
 CYCLE:   303 TIME:   0.328 TIME LEFT:  2.00D  GRAD.:     5.552 HEAT: -1120.918
 CYCLE:   304 TIME:   0.316 TIME LEFT:  2.00D  GRAD.:     6.999 HEAT: -1120.942
 CYCLE:   305 TIME:   0.312 TIME LEFT:  2.00D  GRAD.:     7.961 HEAT: -1120.975
 CYCLE:   306 TIME:   0.332 TIME LEFT:  2.00D  GRAD.:     7.630 HEAT: -1121.010
 CYCLE:   307 TIME:   0.320 TIME LEFT:  2.00D  GRAD.:     7.104 HEAT: -1121.055
 CYCLE:   308 TIME:   0.297 TIME LEFT:  2.00D  GRAD.:     7.042 HEAT: -1121.111
 CYCLE:   309 TIME:   0.340 TIME LEFT:  2.00D  GRAD.:     7.928 HEAT: -1121.173
 CYCLE:   310 TIME:   0.320 TIME LEFT:  2.00D  GRAD.:     9.998 HEAT: -1121.230
 CYCLE:   311 TIME:   0.320 TIME LEFT:  2.00D  GRAD.:    14.267 HEAT: -1121.258
 CYCLE:   312 TIME:   0.395 TIME LEFT:  2.00D  GRAD.:    13.651 HEAT: -1121.349
 CYCLE:   313 TIME:   0.320 TIME LEFT:  2.00D  GRAD.:    11.420 HEAT: -1121.418
 CYCLE:   314 TIME:   0.293 TIME LEFT:  2.00D  GRAD.:     8.309 HEAT: -1121.513
 CYCLE:   315 TIME:   0.297 TIME LEFT:  2.00D  GRAD.:     9.779 HEAT: -1121.590
 CYCLE:   316 TIME:   0.297 TIME LEFT:  2.00D  GRAD.:     6.867 HEAT: -1121.678
 CYCLE:   317 TIME:   0.324 TIME LEFT:  2.00D  GRAD.:     9.781 HEAT: -1121.750
 CYCLE:   318 TIME:   0.309 TIME LEFT:  2.00D  GRAD.:     9.849 HEAT: -1121.807
 CYCLE:   319 TIME:   0.320 TIME LEFT:  2.00D  GRAD.:    12.612 HEAT: -1121.836
 CYCLE:   320 TIME:   0.574 TIME LEFT:  2.00D  GRAD.:    15.078 HEAT: -1121.876
 CYCLE:   321 TIME:   0.316 TIME LEFT:  2.00D  GRAD.:    11.369 HEAT: -1121.944
 CYCLE:   322 TIME:   0.312 TIME LEFT:  2.00D  GRAD.:     8.258 HEAT: -1121.997
 CYCLE:   323 TIME:   0.312 TIME LEFT:  2.00D  GRAD.:     6.801 HEAT: -1122.045
 CYCLE:   324 TIME:   0.312 TIME LEFT:  2.00D  GRAD.:     7.025 HEAT: -1122.089
 CYCLE:   325 TIME:   0.312 TIME LEFT:  2.00D  GRAD.:     6.327 HEAT: -1122.140
 CYCLE:   326 TIME:   0.320 TIME LEFT:  2.00D  GRAD.:     6.629 HEAT: -1122.183
 CYCLE:   327 TIME:   0.316 TIME LEFT:  2.00D  GRAD.:     5.790 HEAT: -1122.221
 CYCLE:   328 TIME:   0.305 TIME LEFT:  2.00D  GRAD.:     6.882 HEAT: -1122.264
 CYCLE:   329 TIME:   0.391 TIME LEFT:  2.00D  GRAD.:     7.009 HEAT: -1122.318
 CYCLE:   330 TIME:   0.617 TIME LEFT:  2.00D  GRAD.:     6.605 HEAT: -1122.364
 CYCLE:   331 TIME:   0.391 TIME LEFT:  2.00D  GRAD.:     6.813 HEAT: -1122.399
 CYCLE:   332 TIME:   0.309 TIME LEFT:  2.00D  GRAD.:     6.580 HEAT: -1122.438
 CYCLE:   333 TIME:   0.312 TIME LEFT:  2.00D  GRAD.:     7.125 HEAT: -1122.467
 CYCLE:   334 TIME:   0.309 TIME LEFT:  2.00D  GRAD.:     4.976 HEAT: -1122.497
 CYCLE:   335 TIME:   0.305 TIME LEFT:  2.00D  GRAD.:     6.229 HEAT: -1122.515
 CYCLE:   336 TIME:   0.309 TIME LEFT:  2.00D  GRAD.:     5.162 HEAT: -1122.537
 CYCLE:   337 TIME:   0.312 TIME LEFT:  2.00D  GRAD.:     5.433 HEAT: -1122.558
 CYCLE:   338 TIME:   0.297 TIME LEFT:  2.00D  GRAD.:     5.082 HEAT: -1122.575
 CYCLE:   339 TIME:   0.312 TIME LEFT:  2.00D  GRAD.:     4.349 HEAT: -1122.595
 CYCLE:   340 TIME:   0.312 TIME LEFT:  2.00D  GRAD.:     4.622 HEAT: -1122.612
 CYCLE:   341 TIME:   0.305 TIME LEFT:  2.00D  GRAD.:     4.103 HEAT: -1122.632
 CYCLE:   342 TIME:   0.305 TIME LEFT:  2.00D  GRAD.:     4.657 HEAT: -1122.651
 CYCLE:   343 TIME:   0.301 TIME LEFT:  2.00D  GRAD.:     4.433 HEAT: -1122.670
 CYCLE:   344 TIME:   0.312 TIME LEFT:  2.00D  GRAD.:     4.059 HEAT: -1122.692
 CYCLE:   345 TIME:   0.305 TIME LEFT:  2.00D  GRAD.:     3.809 HEAT: -1122.710
 CYCLE:   346 TIME:   0.309 TIME LEFT:  2.00D  GRAD.:     3.983 HEAT: -1122.724
 CYCLE:   347 TIME:   0.305 TIME LEFT:  2.00D  GRAD.:     3.226 HEAT: -1122.740
 CYCLE:   348 TIME:   0.305 TIME LEFT:  2.00D  GRAD.:     3.282 HEAT: -1122.756
 CYCLE:   349 TIME:   0.305 TIME LEFT:  2.00D  GRAD.:     3.645 HEAT: -1122.771
 CYCLE:   350 TIME:   0.316 TIME LEFT:  2.00D  GRAD.:     3.649 HEAT: -1122.791
 CYCLE:   351 TIME:   0.301 TIME LEFT:  2.00D  GRAD.:     4.694 HEAT: -1122.813
 CYCLE:   352 TIME:   0.312 TIME LEFT:  2.00D  GRAD.:     4.594 HEAT: -1122.832
 CYCLE:   353 TIME:   0.285 TIME LEFT:  2.00D  GRAD.:     4.501 HEAT: -1122.848
 CYCLE:   354 TIME:   0.305 TIME LEFT:  2.00D  GRAD.:     4.133 HEAT: -1122.865
 CYCLE:   355 TIME:   0.285 TIME LEFT:  2.00D  GRAD.:     3.998 HEAT: -1122.879
 CYCLE:   356 TIME:   0.305 TIME LEFT:  2.00D  GRAD.:     3.332 HEAT: -1122.893
 CYCLE:   357 TIME:   0.305 TIME LEFT:  2.00D  GRAD.:     3.727 HEAT: -1122.907
 CYCLE:   358 TIME:   0.297 TIME LEFT:  2.00D  GRAD.:     3.485 HEAT: -1122.926
 CYCLE:   359 TIME:   0.312 TIME LEFT:  2.00D  GRAD.:     4.010 HEAT: -1122.944
 CYCLE:   360 TIME:   0.324 TIME LEFT:  2.00D  GRAD.:     4.240 HEAT: -1122.959
 CYCLE:   361 TIME:   0.355 TIME LEFT:  2.00D  GRAD.:     3.494 HEAT: -1122.978
 CYCLE:   362 TIME:   0.312 TIME LEFT:  2.00D  GRAD.:     3.606 HEAT: -1122.997
 CYCLE:   363 TIME:   0.324 TIME LEFT:  2.00D  GRAD.:     3.460 HEAT: -1123.012
 CYCLE:   364 TIME:   0.289 TIME LEFT:  2.00D  GRAD.:     3.466 HEAT: -1123.031
 CYCLE:   365 TIME:   0.328 TIME LEFT:  2.00D  GRAD.:     4.178 HEAT: -1123.055
 CYCLE:   366 TIME:   0.305 TIME LEFT:  2.00D  GRAD.:     5.398 HEAT: -1123.072
 CYCLE:   367 TIME:   0.316 TIME LEFT:  2.00D  GRAD.:     6.275 HEAT: -1123.092
 CYCLE:   368 TIME:   0.293 TIME LEFT:  2.00D  GRAD.:     4.875 HEAT: -1123.124
 CYCLE:   369 TIME:   0.312 TIME LEFT:  2.00D  GRAD.:     6.462 HEAT: -1123.162
 CYCLE:   370 TIME:   0.316 TIME LEFT:  2.00D  GRAD.:     6.579 HEAT: -1123.212
 CYCLE:   371 TIME:   0.316 TIME LEFT:  2.00D  GRAD.:     7.353 HEAT: -1123.265
 CYCLE:   372 TIME:   0.301 TIME LEFT:  2.00D  GRAD.:     8.384 HEAT: -1123.299
 CYCLE:   373 TIME:   0.324 TIME LEFT:  2.00D  GRAD.:    12.636 HEAT: -1123.321
 CYCLE:   374 TIME:   0.309 TIME LEFT:  2.00D  GRAD.:     6.593 HEAT: -1123.380
 CYCLE:   375 TIME:   0.312 TIME LEFT:  2.00D  GRAD.:     7.111 HEAT: -1123.415
 CYCLE:   376 TIME:   0.312 TIME LEFT:  2.00D  GRAD.:     5.321 HEAT: -1123.472
 CYCLE:   377 TIME:   0.316 TIME LEFT:  2.00D  GRAD.:     9.891 HEAT: -1123.516
 CYCLE:   378 TIME:   0.324 TIME LEFT:  2.00D  GRAD.:     6.415 HEAT: -1123.567
 CYCLE:   379 TIME:   0.469 TIME LEFT:  2.00D  GRAD.:     8.254 HEAT: -1123.601
 CYCLE:   380 TIME:   0.434 TIME LEFT:  2.00D  GRAD.:     8.282 HEAT: -1123.629
 CYCLE:   381 TIME:   0.348 TIME LEFT:  2.00D  GRAD.:     8.573 HEAT: -1123.653
 CYCLE:   382 TIME:   0.340 TIME LEFT:  2.00D  GRAD.:     6.884 HEAT: -1123.682
 CYCLE:   383 TIME:   0.297 TIME LEFT:  2.00D  GRAD.:     5.238 HEAT: -1123.703
 CYCLE:   384 TIME:   0.305 TIME LEFT:  2.00D  GRAD.:     5.171 HEAT: -1123.722
 CYCLE:   385 TIME:   0.309 TIME LEFT:  2.00D  GRAD.:     6.539 HEAT: -1123.740
 CYCLE:   386 TIME:   0.320 TIME LEFT:  2.00D  GRAD.:     6.463 HEAT: -1123.762
 CYCLE:   387 TIME:   0.305 TIME LEFT:  2.00D  GRAD.:     7.137 HEAT: -1123.782
 CYCLE:   388 TIME:   0.289 TIME LEFT:  2.00D  GRAD.:     4.232 HEAT: -1123.805
 CYCLE:   389 TIME:   0.316 TIME LEFT:  2.00D  GRAD.:     4.273 HEAT: -1123.826
 CYCLE:   390 TIME:   0.301 TIME LEFT:  2.00D  GRAD.:     4.499 HEAT: -1123.846
 CYCLE:   391 TIME:   0.309 TIME LEFT:  2.00D  GRAD.:     4.389 HEAT: -1123.871
 CYCLE:   392 TIME:   0.293 TIME LEFT:  2.00D  GRAD.:     5.354 HEAT: -1123.887
 CYCLE:   393 TIME:   0.309 TIME LEFT:  2.00D  GRAD.:     3.770 HEAT: -1123.909
 CYCLE:   394 TIME:   0.312 TIME LEFT:  2.00D  GRAD.:     4.449 HEAT: -1123.929
 CYCLE:   395 TIME:   0.293 TIME LEFT:  2.00D  GRAD.:     3.903 HEAT: -1123.945
 CYCLE:   396 TIME:   0.289 TIME LEFT:  2.00D  GRAD.:     3.533 HEAT: -1123.966
 CYCLE:   397 TIME:   0.297 TIME LEFT:  2.00D  GRAD.:     5.322 HEAT: -1123.991
 CYCLE:   398 TIME:   0.297 TIME LEFT:  2.00D  GRAD.:     4.994 HEAT: -1124.014
 CYCLE:   399 TIME:   0.293 TIME LEFT:  2.00D  GRAD.:     3.589 HEAT: -1124.039
 CYCLE:   400 TIME:   0.293 TIME LEFT:  2.00D  GRAD.:     4.341 HEAT: -1124.067
 CYCLE:   401 TIME:   0.281 TIME LEFT:  2.00D  GRAD.:     4.273 HEAT: -1124.087
 CYCLE:   402 TIME:   0.297 TIME LEFT:  2.00D  GRAD.:     4.066 HEAT: -1124.106
 CYCLE:   403 TIME:   0.309 TIME LEFT:  2.00D  GRAD.:     4.008 HEAT: -1124.122
 CYCLE:   404 TIME:   0.289 TIME LEFT:  2.00D  GRAD.:     4.585 HEAT: -1124.134
 CYCLE:   405 TIME:   0.281 TIME LEFT:  2.00D  GRAD.:     3.151 HEAT: -1124.149
 CYCLE:   406 TIME:   0.293 TIME LEFT:  2.00D  GRAD.:     3.138 HEAT: -1124.163
 CYCLE:   407 TIME:   0.301 TIME LEFT:  2.00D  GRAD.:     3.409 HEAT: -1124.177
 CYCLE:   408 TIME:   0.281 TIME LEFT:  2.00D  GRAD.:     2.984 HEAT: -1124.194
 CYCLE:   409 TIME:   0.305 TIME LEFT:  2.00D  GRAD.:     3.905 HEAT: -1124.211
 CYCLE:   410 TIME:   0.309 TIME LEFT:  2.00D  GRAD.:     3.469 HEAT: -1124.230
 CYCLE:   411 TIME:   0.395 TIME LEFT:  2.00D  GRAD.:     3.296 HEAT: -1124.247
 CYCLE:   412 TIME:   0.320 TIME LEFT:  2.00D  GRAD.:     3.753 HEAT: -1124.263
 CYCLE:   413 TIME:   0.320 TIME LEFT:  2.00D  GRAD.:     3.957 HEAT: -1124.278
 CYCLE:   414 TIME:   0.316 TIME LEFT:  2.00D  GRAD.:     3.823 HEAT: -1124.294
 CYCLE:   415 TIME:   0.316 TIME LEFT:  2.00D  GRAD.:     3.632 HEAT: -1124.309
 CYCLE:   416 TIME:   0.324 TIME LEFT:  2.00D  GRAD.:     4.112 HEAT: -1124.325
 CYCLE:   417 TIME:   0.305 TIME LEFT:  2.00D  GRAD.:     3.809 HEAT: -1124.343
 CYCLE:   418 TIME:   0.305 TIME LEFT:  2.00D  GRAD.:     3.548 HEAT: -1124.365
 CYCLE:   419 TIME:   0.320 TIME LEFT:  2.00D  GRAD.:     3.163 HEAT: -1124.386
 CYCLE:   420 TIME:   0.316 TIME LEFT:  2.00D  GRAD.:     3.633 HEAT: -1124.406
 CYCLE:   421 TIME:   0.316 TIME LEFT:  2.00D  GRAD.:     3.786 HEAT: -1124.428
 CYCLE:   422 TIME:   0.305 TIME LEFT:  2.00D  GRAD.:     4.263 HEAT: -1124.451
 CYCLE:   423 TIME:   0.309 TIME LEFT:  2.00D  GRAD.:     4.445 HEAT: -1124.471
 CYCLE:   424 TIME:   0.309 TIME LEFT:  2.00D  GRAD.:     4.589 HEAT: -1124.486
 CYCLE:   425 TIME:   0.305 TIME LEFT:  2.00D  GRAD.:     5.157 HEAT: -1124.499
 CYCLE:   426 TIME:   0.297 TIME LEFT:  2.00D  GRAD.:     5.006 HEAT: -1124.510
 CYCLE:   427 TIME:   0.305 TIME LEFT:  2.00D  GRAD.:     3.303 HEAT: -1124.528
 CYCLE:   428 TIME:   0.324 TIME LEFT:  2.00D  GRAD.:     3.249 HEAT: -1124.541
 CYCLE:   429 TIME:   0.562 TIME LEFT:  2.00D  GRAD.:     4.151 HEAT: -1124.556
 CYCLE:   430 TIME:   0.484 TIME LEFT:  2.00D  GRAD.:     3.660 HEAT: -1124.577
 CYCLE:   431 TIME:   0.301 TIME LEFT:  2.00D  GRAD.:     3.708 HEAT: -1124.598
 CYCLE:   432 TIME:   0.316 TIME LEFT:  2.00D  GRAD.:     5.771 HEAT: -1124.619
 CYCLE:   433 TIME:   0.305 TIME LEFT:  2.00D  GRAD.:     5.588 HEAT: -1124.637
 CYCLE:   434 TIME:   0.305 TIME LEFT:  2.00D  GRAD.:     5.249 HEAT: -1124.656
 CYCLE:   435 TIME:   0.293 TIME LEFT:  2.00D  GRAD.:     3.771 HEAT: -1124.677
 CYCLE:   436 TIME:   0.305 TIME LEFT:  2.00D  GRAD.:     3.367 HEAT: -1124.694
 CYCLE:   437 TIME:   0.305 TIME LEFT:  2.00D  GRAD.:     3.328 HEAT: -1124.709
 CYCLE:   438 TIME:   0.312 TIME LEFT:  2.00D  GRAD.:     3.654 HEAT: -1124.720
 CYCLE:   439 TIME:   0.289 TIME LEFT:  2.00D  GRAD.:     3.436 HEAT: -1124.727
 CYCLE:   440 TIME:   0.289 TIME LEFT:  2.00D  GRAD.:     2.834 HEAT: -1124.735
 CYCLE:   441 TIME:   0.297 TIME LEFT:  2.00D  GRAD.:     2.920 HEAT: -1124.743
 CYCLE:   442 TIME:   0.316 TIME LEFT:  2.00D  GRAD.:     3.027 HEAT: -1124.751
 CYCLE:   443 TIME:   0.328 TIME LEFT:  2.00D  GRAD.:     2.838 HEAT: -1124.759
 CYCLE:   444 TIME:   0.316 TIME LEFT:  2.00D  GRAD.:     3.518 HEAT: -1124.767
 CYCLE:   445 TIME:   0.309 TIME LEFT:  2.00D  GRAD.:     2.971 HEAT: -1124.777
 CYCLE:   446 TIME:   0.316 TIME LEFT:  2.00D  GRAD.:     2.818 HEAT: -1124.787
 CYCLE:   447 TIME:   0.324 TIME LEFT:  2.00D  GRAD.:     3.045 HEAT: -1124.799
 CYCLE:   448 TIME:   0.316 TIME LEFT:  2.00D  GRAD.:     2.895 HEAT: -1124.811
 CYCLE:   449 TIME:   0.312 TIME LEFT:  2.00D  GRAD.:     2.967 HEAT: -1124.825
 CYCLE:   450 TIME:   0.312 TIME LEFT:  2.00D  GRAD.:     2.738 HEAT: -1124.838
 CYCLE:   451 TIME:   0.301 TIME LEFT:  2.00D  GRAD.:     3.047 HEAT: -1124.851
 CYCLE:   452 TIME:   0.289 TIME LEFT:  2.00D  GRAD.:     3.120 HEAT: -1124.862
 CYCLE:   453 TIME:   0.297 TIME LEFT:  2.00D  GRAD.:     2.712 HEAT: -1124.874
 CYCLE:   454 TIME:   0.301 TIME LEFT:  2.00D  GRAD.:     3.005 HEAT: -1124.885
 CYCLE:   455 TIME:   0.316 TIME LEFT:  2.00D  GRAD.:     3.265 HEAT: -1124.894
 CYCLE:   456 TIME:   0.293 TIME LEFT:  2.00D  GRAD.:     3.110 HEAT: -1124.901
 CYCLE:   457 TIME:   0.320 TIME LEFT:  2.00D  GRAD.:     2.434 HEAT: -1124.908
 CYCLE:   458 TIME:   0.305 TIME LEFT:  2.00D  GRAD.:     1.996 HEAT: -1124.914
 CYCLE:   459 TIME:   0.289 TIME LEFT:  2.00D  GRAD.:     1.966 HEAT: -1124.920
 CYCLE:   460 TIME:   0.402 TIME LEFT:  2.00D  GRAD.:     2.438 HEAT: -1124.925
 CYCLE:   461 TIME:   0.324 TIME LEFT:  2.00D  GRAD.:     2.553 HEAT: -1124.932
 CYCLE:   462 TIME:   0.316 TIME LEFT:  2.00D  GRAD.:     2.465 HEAT: -1124.940
 CYCLE:   463 TIME:   0.324 TIME LEFT:  2.00D  GRAD.:     2.968 HEAT: -1124.949
 CYCLE:   464 TIME:   0.324 TIME LEFT:  2.00D  GRAD.:     2.903 HEAT: -1124.958
 CYCLE:   465 TIME:   0.305 TIME LEFT:  2.00D  GRAD.:     2.860 HEAT: -1124.967
 CYCLE:   466 TIME:   0.320 TIME LEFT:  2.00D  GRAD.:     2.797 HEAT: -1124.977
 CYCLE:   467 TIME:   0.297 TIME LEFT:  2.00D  GRAD.:     2.930 HEAT: -1124.987
 CYCLE:   468 TIME:   0.316 TIME LEFT:  2.00D  GRAD.:     2.509 HEAT: -1124.997
 CYCLE:   469 TIME:   0.312 TIME LEFT:  2.00D  GRAD.:     2.095 HEAT: -1125.006
 CYCLE:   470 TIME:   0.324 TIME LEFT:  2.00D  GRAD.:     2.058 HEAT: -1125.013
 CYCLE:   471 TIME:   0.316 TIME LEFT:  2.00D  GRAD.:     2.158 HEAT: -1125.019
 CYCLE:   472 TIME:   0.324 TIME LEFT:  2.00D  GRAD.:     2.128 HEAT: -1125.024
 CYCLE:   473 TIME:   0.305 TIME LEFT:  2.00D  GRAD.:     1.715 HEAT: -1125.029
 CYCLE:   474 TIME:   0.309 TIME LEFT:  2.00D  GRAD.:     1.750 HEAT: -1125.034
 CYCLE:   475 TIME:   0.309 TIME LEFT:  2.00D  GRAD.:     2.239 HEAT: -1125.040
 CYCLE:   476 TIME:   0.312 TIME LEFT:  2.00D  GRAD.:     1.986 HEAT: -1125.046
 CYCLE:   477 TIME:   0.328 TIME LEFT:  2.00D  GRAD.:     2.172 HEAT: -1125.051
 CYCLE:   478 TIME:   0.457 TIME LEFT:  2.00D  GRAD.:     2.052 HEAT: -1125.057
 CYCLE:   479 TIME:   0.602 TIME LEFT:  2.00D  GRAD.:     1.746 HEAT: -1125.061
 CYCLE:   480 TIME:   0.312 TIME LEFT:  2.00D  GRAD.:     1.874 HEAT: -1125.066
 CYCLE:   481 TIME:   0.352 TIME LEFT:  2.00D  GRAD.:     1.986 HEAT: -1125.071
 CYCLE:   482 TIME:   0.309 TIME LEFT:  2.00D  GRAD.:     1.814 HEAT: -1125.076
 CYCLE:   483 TIME:   0.312 TIME LEFT:  2.00D  GRAD.:     1.857 HEAT: -1125.083
 CYCLE:   484 TIME:   0.312 TIME LEFT:  2.00D  GRAD.:     1.771 HEAT: -1125.087
 CYCLE:   485 TIME:   0.328 TIME LEFT:  2.00D  GRAD.:     1.864 HEAT: -1125.093
 CYCLE:   486 TIME:   0.312 TIME LEFT:  2.00D  GRAD.:     1.878 HEAT: -1125.100
 CYCLE:   487 TIME:   0.320 TIME LEFT:  2.00D  GRAD.:     2.232 HEAT: -1125.106
 CYCLE:   488 TIME:   0.316 TIME LEFT:  2.00D  GRAD.:     1.915 HEAT: -1125.112
 CYCLE:   489 TIME:   0.309 TIME LEFT:  2.00D  GRAD.:     1.972 HEAT: -1125.119
 CYCLE:   490 TIME:   0.336 TIME LEFT:  2.00D  GRAD.:     2.006 HEAT: -1125.126
 CYCLE:   491 TIME:   0.312 TIME LEFT:  2.00D  GRAD.:     1.995 HEAT: -1125.133
 CYCLE:   492 TIME:   0.312 TIME LEFT:  2.00D  GRAD.:     2.408 HEAT: -1125.140
 CYCLE:   493 TIME:   0.312 TIME LEFT:  2.00D  GRAD.:     2.334 HEAT: -1125.148
 CYCLE:   494 TIME:   0.309 TIME LEFT:  2.00D  GRAD.:     2.295 HEAT: -1125.157
 CYCLE:   495 TIME:   0.297 TIME LEFT:  2.00D  GRAD.:     2.082 HEAT: -1125.163
 CYCLE:   496 TIME:   0.316 TIME LEFT:  2.00D  GRAD.:     2.143 HEAT: -1125.168
 CYCLE:   497 TIME:   0.297 TIME LEFT:  2.00D  GRAD.:     1.969 HEAT: -1125.172
 CYCLE:   498 TIME:   0.305 TIME LEFT:  2.00D  GRAD.:     2.097 HEAT: -1125.178
 CYCLE:   499 TIME:   0.309 TIME LEFT:  2.00D  GRAD.:     2.078 HEAT: -1125.185
 CYCLE:   500 TIME:   0.309 TIME LEFT:  2.00D  GRAD.:     2.531 HEAT: -1125.193
 CYCLE:   501 TIME:   0.324 TIME LEFT:  2.00D  GRAD.:     2.231 HEAT: -1125.201
 CYCLE:   502 TIME:   0.312 TIME LEFT:  2.00D  GRAD.:     2.296 HEAT: -1125.209
 CYCLE:   503 TIME:   0.316 TIME LEFT:  2.00D  GRAD.:     2.277 HEAT: -1125.217
 CYCLE:   504 TIME:   0.328 TIME LEFT:  2.00D  GRAD.:     2.631 HEAT: -1125.225
 CYCLE:   505 TIME:   0.297 TIME LEFT:  2.00D  GRAD.:     2.963 HEAT: -1125.231
 CYCLE:   506 TIME:   0.320 TIME LEFT:  2.00D  GRAD.:     2.561 HEAT: -1125.238
 CYCLE:   507 TIME:   0.301 TIME LEFT:  2.00D  GRAD.:     2.708 HEAT: -1125.245
 CYCLE:   508 TIME:   0.320 TIME LEFT:  2.00D  GRAD.:     2.289 HEAT: -1125.253
 CYCLE:   509 TIME:   0.340 TIME LEFT:  2.00D  GRAD.:     2.371 HEAT: -1125.263
 CYCLE:   510 TIME:   0.344 TIME LEFT:  2.00D  GRAD.:     2.468 HEAT: -1125.271
 CYCLE:   511 TIME:   0.316 TIME LEFT:  2.00D  GRAD.:     2.361 HEAT: -1125.279
 CYCLE:   512 TIME:   0.332 TIME LEFT:  2.00D  GRAD.:     2.212 HEAT: -1125.287
 CYCLE:   513 TIME:   0.324 TIME LEFT:  2.00D  GRAD.:     4.525 HEAT: -1125.293
 CYCLE:   514 TIME:   0.316 TIME LEFT:  2.00D  GRAD.:     5.095 HEAT: -1125.295
 CYCLE:   515 TIME:   0.289 TIME LEFT:  2.00D  GRAD.:     2.794 HEAT: -1125.311
 CYCLE:   516 TIME:   0.297 TIME LEFT:  2.00D  GRAD.:     3.467 HEAT: -1125.321
 CYCLE:   517 TIME:   0.324 TIME LEFT:  2.00D  GRAD.:     5.207 HEAT: -1125.334
 CYCLE:   518 TIME:   0.312 TIME LEFT:  2.00D  GRAD.:     4.796 HEAT: -1125.355
 CYCLE:   519 TIME:   0.309 TIME LEFT:  2.00D  GRAD.:     4.754 HEAT: -1125.372
 CYCLE:   520 TIME:   0.316 TIME LEFT:  2.00D  GRAD.:     6.653 HEAT: -1125.398
 CYCLE:   521 TIME:   0.301 TIME LEFT:  2.00D  GRAD.:     9.841 HEAT: -1125.412
 CYCLE:   522 TIME:   0.324 TIME LEFT:  2.00D  GRAD.:    13.753 HEAT: -1125.431
 CYCLE:   523 TIME:   0.316 TIME LEFT:  2.00D  GRAD.:     7.318 HEAT: -1125.480
 CYCLE:   524 TIME:   0.312 TIME LEFT:  2.00D  GRAD.:     5.642 HEAT: -1125.525
 CYCLE:   525 TIME:   0.332 TIME LEFT:  2.00D  GRAD.:    10.203 HEAT: -1125.580
 CYCLE:   526 TIME:   0.367 TIME LEFT:  2.00D  GRAD.:    12.863 HEAT: -1125.620
 CYCLE:   527 TIME:   0.801 TIME LEFT:  2.00D  GRAD.:    10.020 HEAT: -1125.663
 CYCLE:   528 TIME:   0.320 TIME LEFT:  2.00D  GRAD.:    10.330 HEAT: -1125.695
 CYCLE:   529 TIME:   0.309 TIME LEFT:  2.00D  GRAD.:     5.594 HEAT: -1125.734
 CYCLE:   530 TIME:   0.309 TIME LEFT:  2.00D  GRAD.:     7.411 HEAT: -1125.748
 CYCLE:   531 TIME:   0.355 TIME LEFT:  2.00D  GRAD.:     7.080 HEAT: -1125.774
 CYCLE:   532 TIME:   0.312 TIME LEFT:  2.00D  GRAD.:     7.259 HEAT: -1125.795
 CYCLE:   533 TIME:   0.305 TIME LEFT:  2.00D  GRAD.:     9.415 HEAT: -1125.812
 CYCLE:   534 TIME:   0.305 TIME LEFT:  2.00D  GRAD.:     7.126 HEAT: -1125.838
 CYCLE:   535 TIME:   0.309 TIME LEFT:  2.00D  GRAD.:     7.131 HEAT: -1125.853
 CYCLE:   536 TIME:   0.324 TIME LEFT:  2.00D  GRAD.:     5.046 HEAT: -1125.879
 CYCLE:   537 TIME:   0.316 TIME LEFT:  2.00D  GRAD.:     5.764 HEAT: -1125.896
 CYCLE:   538 TIME:   0.582 TIME LEFT:  2.00D  GRAD.:     6.707 HEAT: -1125.910
 CYCLE:   539 TIME:   0.305 TIME LEFT:  2.00D  GRAD.:     6.122 HEAT: -1125.922
 CYCLE:   540 TIME:   0.309 TIME LEFT:  2.00D  GRAD.:     4.465 HEAT: -1125.936
 CYCLE:   541 TIME:   0.301 TIME LEFT:  2.00D  GRAD.:     3.494 HEAT: -1125.946
 CYCLE:   542 TIME:   0.301 TIME LEFT:  2.00D  GRAD.:     3.090 HEAT: -1125.954
 CYCLE:   543 TIME:   0.320 TIME LEFT:  2.00D  GRAD.:     3.026 HEAT: -1125.962
 CYCLE:   544 TIME:   0.305 TIME LEFT:  2.00D  GRAD.:     3.266 HEAT: -1125.969
 CYCLE:   545 TIME:   0.312 TIME LEFT:  2.00D  GRAD.:     2.768 HEAT: -1125.975
 CYCLE:   546 TIME:   0.316 TIME LEFT:  2.00D  GRAD.:     2.524 HEAT: -1125.980
 CYCLE:   547 TIME:   0.305 TIME LEFT:  2.00D  GRAD.:     2.461 HEAT: -1125.985
 CYCLE:   548 TIME:   0.332 TIME LEFT:  2.00D  GRAD.:     3.018 HEAT: -1125.988
 CYCLE:   549 TIME:   0.305 TIME LEFT:  2.00D  GRAD.:     2.449 HEAT: -1125.992
 CYCLE:   550 TIME:   0.309 TIME LEFT:  2.00D  GRAD.:     1.679 HEAT: -1125.995
 CYCLE:   551 TIME:   0.316 TIME LEFT:  2.00D  GRAD.:     1.566 HEAT: -1125.997
 CYCLE:   552 TIME:   0.305 TIME LEFT:  2.00D  GRAD.:     1.621 HEAT: -1126.001
 CYCLE:   553 TIME:   0.305 TIME LEFT:  2.00D  GRAD.:     1.640 HEAT: -1126.003
 CYCLE:   554 TIME:   0.312 TIME LEFT:  2.00D  GRAD.:     1.658 HEAT: -1126.007
 CYCLE:   555 TIME:   0.312 TIME LEFT:  2.00D  GRAD.:     1.648 HEAT: -1126.011
 CYCLE:   556 TIME:   0.379 TIME LEFT:  2.00D  GRAD.:     1.657 HEAT: -1126.015
 CYCLE:   557 TIME:   0.324 TIME LEFT:  2.00D  GRAD.:     1.484 HEAT: -1126.018
 CYCLE:   558 TIME:   0.324 TIME LEFT:  2.00D  GRAD.:     1.691 HEAT: -1126.023
 CYCLE:   559 TIME:   0.324 TIME LEFT:  2.00D  GRAD.:     2.163 HEAT: -1126.027
 CYCLE:   560 TIME:   0.316 TIME LEFT:  2.00D  GRAD.:     1.762 HEAT: -1126.031
 CYCLE:   561 TIME:   0.312 TIME LEFT:  2.00D  GRAD.:     1.337 HEAT: -1126.034
 CYCLE:   562 TIME:   0.316 TIME LEFT:  2.00D  GRAD.:     1.347 HEAT: -1126.037
 CYCLE:   563 TIME:   0.301 TIME LEFT:  2.00D  GRAD.:     1.155 HEAT: -1126.039
 CYCLE:   564 TIME:   0.293 TIME LEFT:  2.00D  GRAD.:     1.080 HEAT: -1126.041
 CYCLE:   565 TIME:   0.312 TIME LEFT:  2.00D  GRAD.:     1.230 HEAT: -1126.043
 CYCLE:   566 TIME:   0.297 TIME LEFT:  2.00D  GRAD.:     1.121 HEAT: -1126.044
 CYCLE:   567 TIME:   0.293 TIME LEFT:  2.00D  GRAD.:     1.112 HEAT: -1126.046
 CYCLE:   568 TIME:   0.297 TIME LEFT:  2.00D  GRAD.:     1.124 HEAT: -1126.048
 CYCLE:   569 TIME:   0.309 TIME LEFT:  2.00D  GRAD.:     1.075 HEAT: -1126.049
 CYCLE:   570 TIME:   0.301 TIME LEFT:  2.00D  GRAD.:     0.970 HEAT: -1126.051
 CYCLE:   571 TIME:   0.320 TIME LEFT:  2.00D  GRAD.:     1.054 HEAT: -1126.052
 CYCLE:   572 TIME:   0.309 TIME LEFT:  2.00D  GRAD.:     1.162 HEAT: -1126.054
 CYCLE:   573 TIME:   0.316 TIME LEFT:  2.00D  GRAD.:     1.335 HEAT: -1126.056
 CYCLE:   574 TIME:   0.359 TIME LEFT:  2.00D  GRAD.:     1.578 HEAT: -1126.059
 CYCLE:   575 TIME:   0.484 TIME LEFT:  2.00D  GRAD.:     1.437 HEAT: -1126.062
 CYCLE:   576 TIME:   0.367 TIME LEFT:  2.00D  GRAD.:     1.472 HEAT: -1126.065
 CYCLE:   577 TIME:   0.359 TIME LEFT:  2.00D  GRAD.:     1.388 HEAT: -1126.068
 CYCLE:   578 TIME:   0.312 TIME LEFT:  2.00D  GRAD.:     1.605 HEAT: -1126.070
 CYCLE:   579 TIME:   0.324 TIME LEFT:  2.00D  GRAD.:     1.608 HEAT: -1126.072
 CYCLE:   580 TIME:   0.297 TIME LEFT:  2.00D  GRAD.:     1.230 HEAT: -1126.074
 CYCLE:   581 TIME:   0.312 TIME LEFT:  2.00D  GRAD.:     1.312 HEAT: -1126.076
 CYCLE:   582 TIME:   0.312 TIME LEFT:  2.00D  GRAD.:     1.295 HEAT: -1126.079
 CYCLE:   583 TIME:   0.316 TIME LEFT:  2.00D  GRAD.:     1.191 HEAT: -1126.081
 CYCLE:   584 TIME:   0.312 TIME LEFT:  2.00D  GRAD.:     1.031 HEAT: -1126.084
 CYCLE:   585 TIME:   0.320 TIME LEFT:  2.00D  GRAD.:     1.141 HEAT: -1126.085
 CYCLE:   586 TIME:   0.312 TIME LEFT:  2.00D  GRAD.:     1.169 HEAT: -1126.087
 CYCLE:   587 TIME:   0.293 TIME LEFT:  2.00D  GRAD.:     1.202 HEAT: -1126.089
 CYCLE:   588 TIME:   0.305 TIME LEFT:  2.00D  GRAD.:     1.097 HEAT: -1126.090
 CYCLE:   589 TIME:   0.301 TIME LEFT:  2.00D  GRAD.:     0.995 HEAT: -1126.091
 CYCLE:   590 TIME:   0.297 TIME LEFT:  2.00D  GRAD.:     0.890 HEAT: -1126.093
 CYCLE:   591 TIME:   0.305 TIME LEFT:  2.00D  GRAD.:     0.948 HEAT: -1126.094
 CYCLE:   592 TIME:   0.297 TIME LEFT:  2.00D  GRAD.:     0.933 HEAT: -1126.095
 CYCLE:   593 TIME:   0.301 TIME LEFT:  2.00D  GRAD.:     0.947 HEAT: -1126.097
 CYCLE:   594 TIME:   0.297 TIME LEFT:  2.00D  GRAD.:     1.113 HEAT: -1126.099
 CYCLE:   595 TIME:   0.309 TIME LEFT:  2.00D  GRAD.:     1.611 HEAT: -1126.100
 CYCLE:   596 TIME:   0.301 TIME LEFT:  2.00D  GRAD.:     1.579 HEAT: -1126.102
 CYCLE:   597 TIME:   0.312 TIME LEFT:  2.00D  GRAD.:     0.967 HEAT: -1126.104
 CYCLE:   598 TIME:   0.312 TIME LEFT:  2.00D  GRAD.:     0.729 HEAT: -1126.105
 CYCLE:   599 TIME:   0.309 TIME LEFT:  2.00D  GRAD.:     0.732 HEAT: -1126.106
 CYCLE:   600 TIME:   0.309 TIME LEFT:  2.00D  GRAD.:     0.778 HEAT: -1126.107
 CYCLE:   601 TIME:   0.305 TIME LEFT:  2.00D  GRAD.:     0.739 HEAT: -1126.108
 CYCLE:   602 TIME:   0.316 TIME LEFT:  2.00D  GRAD.:     0.727 HEAT: -1126.109
 CYCLE:   603 TIME:   0.305 TIME LEFT:  2.00D  GRAD.:     0.732 HEAT: -1126.110
 CYCLE:   604 TIME:   0.293 TIME LEFT:  2.00D  GRAD.:     0.794 HEAT: -1126.112
 CYCLE:   605 TIME:   0.324 TIME LEFT:  2.00D  GRAD.:     0.911 HEAT: -1126.113
 CYCLE:   606 TIME:   0.348 TIME LEFT:  2.00D  GRAD.:     0.962 HEAT: -1126.114
 CYCLE:   607 TIME:   0.320 TIME LEFT:  2.00D  GRAD.:     1.007 HEAT: -1126.116
 CYCLE:   608 TIME:   0.316 TIME LEFT:  2.00D  GRAD.:     0.849 HEAT: -1126.117
 CYCLE:   609 TIME:   0.316 TIME LEFT:  2.00D  GRAD.:     0.760 HEAT: -1126.119
 CYCLE:   610 TIME:   0.309 TIME LEFT:  2.00D  GRAD.:     0.686 HEAT: -1126.120
 CYCLE:   611 TIME:   0.320 TIME LEFT:  2.00D  GRAD.:     0.731 HEAT: -1126.121
 CYCLE:   612 TIME:   0.301 TIME LEFT:  2.00D  GRAD.:     0.688 HEAT: -1126.122
 CYCLE:   613 TIME:   0.312 TIME LEFT:  2.00D  GRAD.:     0.619 HEAT: -1126.122
 CYCLE:   614 TIME:   0.301 TIME LEFT:  2.00D  GRAD.:     0.499 HEAT: -1126.123
 CYCLE:   615 TIME:   0.312 TIME LEFT:  2.00D  GRAD.:     0.603 HEAT: -1126.124
 CYCLE:   616 TIME:   0.312 TIME LEFT:  2.00D  GRAD.:     0.616 HEAT: -1126.124
 CYCLE:   617 TIME:   0.316 TIME LEFT:  2.00D  GRAD.:     0.557 HEAT: -1126.125
 CYCLE:   618 TIME:   0.316 TIME LEFT:  2.00D  GRAD.:     0.611 HEAT: -1126.125
 CYCLE:   619 TIME:   0.301 TIME LEFT:  2.00D  GRAD.:     0.610 HEAT: -1126.126
 CYCLE:   620 TIME:   0.324 TIME LEFT:  2.00D  GRAD.:     0.701 HEAT: -1126.127
 CYCLE:   621 TIME:   0.320 TIME LEFT:  2.00D  GRAD.:     0.782 HEAT: -1126.128
 CYCLE:   622 TIME:   0.309 TIME LEFT:  2.00D  GRAD.:     0.830 HEAT: -1126.129
 CYCLE:   623 TIME:   0.309 TIME LEFT:  2.00D  GRAD.:     0.765 HEAT: -1126.130
 CYCLE:   624 TIME:   0.422 TIME LEFT:  2.00D  GRAD.:     0.789 HEAT: -1126.131
 CYCLE:   625 TIME:   0.703 TIME LEFT:  2.00D  GRAD.:     0.631 HEAT: -1126.131
 CYCLE:   626 TIME:   0.312 TIME LEFT:  2.00D  GRAD.:     0.579 HEAT: -1126.132
 CYCLE:   627 TIME:   0.324 TIME LEFT:  2.00D  GRAD.:     0.591 HEAT: -1126.133
 CYCLE:   628 TIME:   0.324 TIME LEFT:  2.00D  GRAD.:     0.615 HEAT: -1126.133
 CYCLE:   629 TIME:   0.312 TIME LEFT:  2.00D  GRAD.:     0.647 HEAT: -1126.134
 CYCLE:   630 TIME:   0.305 TIME LEFT:  2.00D  GRAD.:     0.706 HEAT: -1126.135
 CYCLE:   631 TIME:   0.320 TIME LEFT:  2.00D  GRAD.:     0.726 HEAT: -1126.136
 CYCLE:   632 TIME:   0.305 TIME LEFT:  2.00D  GRAD.:     0.609 HEAT: -1126.136
 CYCLE:   633 TIME:   0.305 TIME LEFT:  2.00D  GRAD.:     0.501 HEAT: -1126.137
 CYCLE:   634 TIME:   0.309 TIME LEFT:  2.00D  GRAD.:     0.501 HEAT: -1126.137
 CYCLE:   635 TIME:   0.316 TIME LEFT:  2.00D  GRAD.:     0.623 HEAT: -1126.138
 CYCLE:   636 TIME:   0.320 TIME LEFT:  2.00D  GRAD.:     0.670 HEAT: -1126.139
 CYCLE:   637 TIME:   0.316 TIME LEFT:  2.00D  GRAD.:     0.784 HEAT: -1126.140
 CYCLE:   638 TIME:   0.309 TIME LEFT:  2.00D  GRAD.:     0.671 HEAT: -1126.141
 CYCLE:   639 TIME:   0.305 TIME LEFT:  2.00D  GRAD.:     0.589 HEAT: -1126.141
 CYCLE:   640 TIME:   0.309 TIME LEFT:  2.00D  GRAD.:     0.480 HEAT: -1126.142
 CYCLE:   641 TIME:   0.316 TIME LEFT:  2.00D  GRAD.:     0.475 HEAT: -1126.142
 CYCLE:   642 TIME:   0.305 TIME LEFT:  2.00D  GRAD.:     0.488 HEAT: -1126.143
 CYCLE:   643 TIME:   0.312 TIME LEFT:  2.00D  GRAD.:     0.487 HEAT: -1126.143
 CYCLE:   644 TIME:   0.301 TIME LEFT:  2.00D  GRAD.:     0.493 HEAT: -1126.144
 CYCLE:   645 TIME:   0.316 TIME LEFT:  2.00D  GRAD.:     0.584 HEAT: -1126.144
 CYCLE:   646 TIME:   0.309 TIME LEFT:  2.00D  GRAD.:     0.601 HEAT: -1126.145
 CYCLE:   647 TIME:   0.305 TIME LEFT:  2.00D  GRAD.:     0.611 HEAT: -1126.145
 CYCLE:   648 TIME:   0.293 TIME LEFT:  2.00D  GRAD.:     0.569 HEAT: -1126.146
 CYCLE:   649 TIME:   0.301 TIME LEFT:  2.00D  GRAD.:     0.544 HEAT: -1126.146
 CYCLE:   650 TIME:   0.285 TIME LEFT:  2.00D  GRAD.:     0.536 HEAT: -1126.147
 CYCLE:   651 TIME:   0.305 TIME LEFT:  2.00D  GRAD.:     0.548 HEAT: -1126.147
 CYCLE:   652 TIME:   0.297 TIME LEFT:  2.00D  GRAD.:     0.523 HEAT: -1126.148
 CYCLE:   653 TIME:   0.301 TIME LEFT:  2.00D  GRAD.:     0.555 HEAT: -1126.148
 CYCLE:   654 TIME:   0.316 TIME LEFT:  2.00D  GRAD.:     0.662 HEAT: -1126.149
 CYCLE:   655 TIME:   0.367 TIME LEFT:  2.00D  GRAD.:     0.714 HEAT: -1126.150
 CYCLE:   656 TIME:   0.328 TIME LEFT:  2.00D  GRAD.:     0.779 HEAT: -1126.151
 CYCLE:   657 TIME:   0.324 TIME LEFT:  2.00D  GRAD.:     0.727 HEAT: -1126.152
 CYCLE:   658 TIME:   0.316 TIME LEFT:  2.00D  GRAD.:     0.788 HEAT: -1126.153
 CYCLE:   659 TIME:   0.312 TIME LEFT:  2.00D  GRAD.:     0.910 HEAT: -1126.153
 CYCLE:   660 TIME:   0.312 TIME LEFT:  2.00D  GRAD.:     0.799 HEAT: -1126.154
 CYCLE:   661 TIME:   0.324 TIME LEFT:  2.00D  GRAD.:     0.696 HEAT: -1126.155
 CYCLE:   662 TIME:   0.320 TIME LEFT:  2.00D  GRAD.:     0.664 HEAT: -1126.156
 CYCLE:   663 TIME:   0.309 TIME LEFT:  2.00D  GRAD.:     0.623 HEAT: -1126.157
 CYCLE:   664 TIME:   0.312 TIME LEFT:  2.00D  GRAD.:     0.609 HEAT: -1126.157
 CYCLE:   665 TIME:   0.312 TIME LEFT:  2.00D  GRAD.:     0.619 HEAT: -1126.158
 CYCLE:   666 TIME:   0.312 TIME LEFT:  2.00D  GRAD.:     0.651 HEAT: -1126.159
 CYCLE:   667 TIME:   0.312 TIME LEFT:  2.00D  GRAD.:     0.684 HEAT: -1126.160
 CYCLE:   668 TIME:   0.320 TIME LEFT:  2.00D  GRAD.:     0.697 HEAT: -1126.161
 CYCLE:   669 TIME:   0.316 TIME LEFT:  2.00D  GRAD.:     0.684 HEAT: -1126.161
 CYCLE:   670 TIME:   0.320 TIME LEFT:  2.00D  GRAD.:     0.660 HEAT: -1126.162
 CYCLE:   671 TIME:   0.305 TIME LEFT:  2.00D  GRAD.:     0.672 HEAT: -1126.163
 CYCLE:   672 TIME:   0.324 TIME LEFT:  2.00D  GRAD.:     0.640 HEAT: -1126.164
 CYCLE:   673 TIME:   0.492 TIME LEFT:  2.00D  GRAD.:     0.596 HEAT: -1126.164
 CYCLE:   674 TIME:   0.586 TIME LEFT:  2.00D  GRAD.:     0.646 HEAT: -1126.165
 CYCLE:   675 TIME:   0.328 TIME LEFT:  2.00D  GRAD.:     0.673 HEAT: -1126.166
 CYCLE:   676 TIME:   0.316 TIME LEFT:  2.00D  GRAD.:     0.615 HEAT: -1126.167
 CYCLE:   677 TIME:   0.328 TIME LEFT:  2.00D  GRAD.:     0.636 HEAT: -1126.168
 CYCLE:   678 TIME:   0.312 TIME LEFT:  2.00D  GRAD.:     0.588 HEAT: -1126.168
 CYCLE:   679 TIME:   0.301 TIME LEFT:  2.00D  GRAD.:     0.655 HEAT: -1126.169
 CYCLE:   680 TIME:   0.309 TIME LEFT:  2.00D  GRAD.:     0.571 HEAT: -1126.170
 CYCLE:   681 TIME:   0.309 TIME LEFT:  2.00D  GRAD.:     0.620 HEAT: -1126.170
 CYCLE:   682 TIME:   0.316 TIME LEFT:  2.00D  GRAD.:     0.606 HEAT: -1126.171
 CYCLE:   683 TIME:   0.312 TIME LEFT:  2.00D  GRAD.:     0.630 HEAT: -1126.172
 CYCLE:   684 TIME:   0.320 TIME LEFT:  2.00D  GRAD.:     0.607 HEAT: -1126.172
 CYCLE:   685 TIME:   0.312 TIME LEFT:  2.00D  GRAD.:     0.572 HEAT: -1126.173
 CYCLE:   686 TIME:   0.305 TIME LEFT:  2.00D  GRAD.:     0.434 HEAT: -1126.173
 CYCLE:   687 TIME:   0.293 TIME LEFT:  2.00D  GRAD.:     0.514 HEAT: -1126.173
 CYCLE:   688 TIME:   0.301 TIME LEFT:  2.00D  GRAD.:     0.505 HEAT: -1126.174
 CYCLE:   689 TIME:   0.324 TIME LEFT:  2.00D  GRAD.:     0.554 HEAT: -1126.174
 CYCLE:   690 TIME:   0.309 TIME LEFT:  2.00D  GRAD.:     0.598 HEAT: -1126.175
 CYCLE:   691 TIME:   0.316 TIME LEFT:  2.00D  GRAD.:     0.594 HEAT: -1126.175
 CYCLE:   692 TIME:   0.316 TIME LEFT:  2.00D  GRAD.:     0.545 HEAT: -1126.176
 CYCLE:   693 TIME:   0.301 TIME LEFT:  2.00D  GRAD.:     0.512 HEAT: -1126.176
 CYCLE:   694 TIME:   0.305 TIME LEFT:  2.00D  GRAD.:     0.533 HEAT: -1126.177
 CYCLE:   695 TIME:   0.320 TIME LEFT:  2.00D  GRAD.:     0.538 HEAT: -1126.177
 CYCLE:   696 TIME:   0.324 TIME LEFT:  2.00D  GRAD.:     0.556 HEAT: -1126.178
 CYCLE:   697 TIME:   0.312 TIME LEFT:  2.00D  GRAD.:     0.572 HEAT: -1126.179
 CYCLE:   698 TIME:   0.320 TIME LEFT:  2.00D  GRAD.:     0.594 HEAT: -1126.179
 CYCLE:   699 TIME:   0.312 TIME LEFT:  2.00D  GRAD.:     0.580 HEAT: -1126.180
 CYCLE:   700 TIME:   0.309 TIME LEFT:  2.00D  GRAD.:     0.552 HEAT: -1126.180
 CYCLE:   701 TIME:   0.316 TIME LEFT:  2.00D  GRAD.:     0.568 HEAT: -1126.181
 CYCLE:   702 TIME:   0.297 TIME LEFT:  2.00D  GRAD.:     0.567 HEAT: -1126.182
 CYCLE:   703 TIME:   0.320 TIME LEFT:  2.00D  GRAD.:     0.669 HEAT: -1126.182
 CYCLE:   704 TIME:   0.344 TIME LEFT:  2.00D  GRAD.:     0.628 HEAT: -1126.183
 CYCLE:   705 TIME:   0.332 TIME LEFT:  2.00D  GRAD.:     0.656 HEAT: -1126.184
 CYCLE:   706 TIME:   0.324 TIME LEFT:  2.00D  GRAD.:     0.643 HEAT: -1126.184
 CYCLE:   707 TIME:   0.332 TIME LEFT:  2.00D  GRAD.:     0.677 HEAT: -1126.185
 CYCLE:   708 TIME:   0.320 TIME LEFT:  2.00D  GRAD.:     0.603 HEAT: -1126.185
 CYCLE:   709 TIME:   0.340 TIME LEFT:  2.00D  GRAD.:     0.666 HEAT: -1126.186
 CYCLE:   710 TIME:   0.324 TIME LEFT:  2.00D  GRAD.:     0.598 HEAT: -1126.186
 CYCLE:   711 TIME:   0.312 TIME LEFT:  2.00D  GRAD.:     0.586 HEAT: -1126.187
 CYCLE:   712 TIME:   0.312 TIME LEFT:  2.00D  GRAD.:     0.561 HEAT: -1126.187
 CYCLE:   713 TIME:   0.309 TIME LEFT:  2.00D  GRAD.:     0.580 HEAT: -1126.188
 CYCLE:   714 TIME:   0.312 TIME LEFT:  2.00D  GRAD.:     0.589 HEAT: -1126.189
 CYCLE:   715 TIME:   0.316 TIME LEFT:  2.00D  GRAD.:     0.680 HEAT: -1126.189
 CYCLE:   716 TIME:   0.336 TIME LEFT:  2.00D  GRAD.:     0.621 HEAT: -1126.190
 CYCLE:   717 TIME:   0.332 TIME LEFT:  2.00D  GRAD.:     0.598 HEAT: -1126.191
 CYCLE:   718 TIME:   0.309 TIME LEFT:  2.00D  GRAD.:     0.614 HEAT: -1126.191
 CYCLE:   719 TIME:   0.320 TIME LEFT:  2.00D  GRAD.:     0.659 HEAT: -1126.192
 CYCLE:   720 TIME:   0.316 TIME LEFT:  2.00D  GRAD.:     0.654 HEAT: -1126.193
 CYCLE:   721 TIME:   0.379 TIME LEFT:  2.00D  GRAD.:     0.630 HEAT: -1126.193
 CYCLE:   722 TIME:   0.621 TIME LEFT:  2.00D  GRAD.:     0.600 HEAT: -1126.194
 CYCLE:   723 TIME:   0.312 TIME LEFT:  2.00D  GRAD.:     0.787 HEAT: -1126.194
 CYCLE:   724 TIME:   0.320 TIME LEFT:  2.00D  GRAD.:     0.642 HEAT: -1126.194
 CYCLE:   725 TIME:   0.301 TIME LEFT:  2.00D  GRAD.:     0.515 HEAT: -1126.195
 CYCLE:   726 TIME:   0.301 TIME LEFT:  2.00D  GRAD.:     0.589 HEAT: -1126.195
 CYCLE:   727 TIME:   0.316 TIME LEFT:  2.00D  GRAD.:     0.578 HEAT: -1126.196
 CYCLE:   728 TIME:   0.316 TIME LEFT:  2.00D  GRAD.:     0.522 HEAT: -1126.196
 CYCLE:   729 TIME:   0.309 TIME LEFT:  2.00D  GRAD.:     0.606 HEAT: -1126.197
 CYCLE:   730 TIME:   0.301 TIME LEFT:  2.00D  GRAD.:     0.523 HEAT: -1126.197
 CYCLE:   731 TIME:   0.309 TIME LEFT:  2.00D  GRAD.:     0.460 HEAT: -1126.197
 CYCLE:   732 TIME:   0.324 TIME LEFT:  2.00D  GRAD.:     0.404 HEAT: -1126.198
 CYCLE:   733 TIME:   0.316 TIME LEFT:  2.00D  GRAD.:     0.379 HEAT: -1126.198
 CYCLE:   734 TIME:   0.324 TIME LEFT:  2.00D  GRAD.:     0.366 HEAT: -1126.198
 CYCLE:   735 TIME:   0.320 TIME LEFT:  2.00D  GRAD.:     0.313 HEAT: -1126.198
 CYCLE:   736 TIME:   0.312 TIME LEFT:  2.00D  GRAD.:     0.301 HEAT: -1126.199
 CYCLE:   737 TIME:   0.320 TIME LEFT:  2.00D  GRAD.:     0.307 HEAT: -1126.199
 CYCLE:   738 TIME:   0.324 TIME LEFT:  2.00D  GRAD.:     0.309 HEAT: -1126.199
 CYCLE:   739 TIME:   0.309 TIME LEFT:  2.00D  GRAD.:     0.262 HEAT: -1126.199
 CYCLE:   740 TIME:   0.320 TIME LEFT:  2.00D  GRAD.:     0.267 HEAT: -1126.199
 CYCLE:   741 TIME:   0.316 TIME LEFT:  2.00D  GRAD.:     0.245 HEAT: -1126.199
 CYCLE:   742 TIME:   0.301 TIME LEFT:  2.00D  GRAD.:     0.257 HEAT: -1126.199
 CYCLE:   743 TIME:   0.320 TIME LEFT:  2.00D  GRAD.:     0.210 HEAT: -1126.199
 CYCLE:   744 TIME:   0.301 TIME LEFT:  2.00D  GRAD.:     0.247 HEAT: -1126.200
 CYCLE:   745 TIME:   0.309 TIME LEFT:  2.00D  GRAD.:     0.265 HEAT: -1126.200
 CYCLE:   746 TIME:   0.281 TIME LEFT:  2.00D  GRAD.:     0.323 HEAT: -1126.200
 CYCLE:   747 TIME:   0.293 TIME LEFT:  2.00D  GRAD.:     0.390 HEAT: -1126.200
 CYCLE:   748 TIME:   0.285 TIME LEFT:  2.00D  GRAD.:     0.386 HEAT: -1126.200
 CYCLE:   749 TIME:   0.285 TIME LEFT:  2.00D  GRAD.:     0.408 HEAT: -1126.201
 CYCLE:   750 TIME:   0.297 TIME LEFT:  2.00D  GRAD.:     0.362 HEAT: -1126.201
 CYCLE:   751 TIME:   0.301 TIME LEFT:  2.00D  GRAD.:     0.333 HEAT: -1126.201
 CYCLE:   752 TIME:   0.312 TIME LEFT:  2.00D  GRAD.:     0.323 HEAT: -1126.201
 CYCLE:   753 TIME:   0.375 TIME LEFT:  2.00D  GRAD.:     0.306 HEAT: -1126.201
 CYCLE:   754 TIME:   0.305 TIME LEFT:  2.00D  GRAD.:     0.306 HEAT: -1126.201
 CYCLE:   755 TIME:   0.301 TIME LEFT:  2.00D  GRAD.:     0.316 HEAT: -1126.202
 CYCLE:   756 TIME:   0.305 TIME LEFT:  2.00D  GRAD.:     0.331 HEAT: -1126.202
 CYCLE:   757 TIME:   0.312 TIME LEFT:  2.00D  GRAD.:     0.338 HEAT: -1126.202
 CYCLE:   758 TIME:   0.316 TIME LEFT:  2.00D  GRAD.:     0.355 HEAT: -1126.202
 CYCLE:   759 TIME:   0.316 TIME LEFT:  2.00D  GRAD.:     0.300 HEAT: -1126.202
 CYCLE:   760 TIME:   0.328 TIME LEFT:  2.00D  GRAD.:     0.313 HEAT: -1126.203
 CYCLE:   761 TIME:   0.297 TIME LEFT:  2.00D  GRAD.:     0.257 HEAT: -1126.203
[...]
   10          C(HETATM   10  C   HET A   1)          -0.008261        4.0083     1.23048     2.77778
   11          O(HETATM   11  O   HET A   1)          -0.323818        6.3238     1.86989     4.45393
   12          C(HETATM   12  C   HET A   1)           0.317445        3.6826     1.22365     2.45890
   13          O(HETATM   13  O   HET A   1)          -0.379845        6.3798     1.91633     4.46351
   14          C(HETATM   14  C   HET A   1)          -0.239764        4.2398     1.22929     3.01048
   15          C(HETATM   15  C   HET A   1)           0.145208        3.8548     1.25148     2.60331
   16          C(HETATM   16  C   HET A   1)          -0.021087        4.0211     1.22948     2.79160
   17          N(HETATM   17  N   HET A   1)          -0.366198        5.3662     1.46949     3.89671
   18          C(HETATM   18  C   HET A   1)           0.011347        3.9887     1.23285     2.75580
   19          O(HETATM   19  O   HET A   1)          -0.307971        6.3080     1.86953     4.43844
   20          C(HETATM   20  C   HET A   1)          -0.026247        4.0262     1.24266     2.78359
   21          O(HETATM   21  O   HET A   1)          -0.250531        6.2505     1.87884     4.37169
   22          C(HETATM   22  C   HET A   1)          -0.012997        4.0130     1.23948     2.77352
   23          O(HETATM   23  O   HET A   1)          -0.325443        6.3254     1.87639     4.44905
   24          C(HETATM   24  C   HET A   1)          -0.013619        4.0136     1.23069     2.78292
   25          O(HETATM   25  O   HET A   1)          -0.338426        6.3384     1.87000     4.46843
   26          C(HETATM   26  C   HET A   1)           0.311826        3.6882     1.22409     2.46408
   27          O(HETATM   27  O   HET A   1)          -0.360481        6.3605     1.91620     4.44428
   28          C(HETATM   28  C   HET A   1)          -0.242690        4.2427     1.23023     3.01246
   29          C(HETATM   29  C   HET A   1)           0.148131        3.8519     1.24789     2.60398
   30          C(HETATM   30  C   HET A   1)          -0.025702        4.0257     1.23021     2.79549
   31          N(HETATM   31  N   HET A   1)          -0.371731        5.3717     1.46510     3.90663
   32          C(HETATM   32  C   HET A   1)           0.007953        3.9920     1.23473     2.75731
   33          O(HETATM   33  O   HET A   1)          -0.313394        6.3134     1.87061     4.44279
   34          C(HETATM   34  C   HET A   1)          -0.020922        4.0209     1.24224     2.77868
   35          O(HETATM   35  O   HET A   1)          -0.243488        6.2435     1.87851     4.36498
   36          C(HETATM   36  C   HET A   1)          -0.010518        4.0105     1.23985     2.77066
   37          O(HETATM   37  O   HET A   1)          -0.302817        6.3028     1.87880     4.42401
   38          C(HETATM   38  C   HET A   1)          -0.009947        4.0099     1.22989     2.78005
   39          O(HETATM   39  O   HET A   1)          -0.335624        6.3356     1.86903     4.46659
   40          C(HETATM   40  C   HET A   1)           0.313470        3.6865     1.22468     2.46185
   41          O(HETATM   41  O   HET A   1)          -0.371532        6.3715     1.91638     4.45516
   42          C(HETATM   42  C   HET A   1)          -0.241095        4.2411     1.22988     3.01121
   43          C(HETATM   43  C   HET A   1)           0.176163        3.8238     1.22560     2.59824
   44          O(HETATM   44  O   HET A   1)          -0.343509        6.3435     1.86952     4.47399
   45          C(HETATM   45  C   HET A   1)          -0.050283        4.0503     1.21134     2.83895
   46          N(HETATM   46  N   HET A   1)          -0.319338        5.3193     1.45040     3.86894
   47          C(HETATM   47  C   HET A   1)          -0.201344        4.2013     1.23988     2.96146
   48          C(HETATM   48  C   HET A   1)           0.051212        3.9488     1.21853     2.73026
   49          O(HETATM   49  O   HET A   1)          -0.261249        6.2612     1.87670     4.38455
   50          C(HETATM   50  C   HET A   1)          -0.015553        4.0156     1.24290     2.77265
   51          O(HETATM   51  O   HET A   1)          -0.278530        6.2785     1.87815     4.40038
   52          C(HETATM   52  C   HET A   1)          -0.034118        4.0341     1.23373     2.80039
   53          O(HETATM   53  O   HET A   1)          -0.324986        6.3250     1.86943     4.45555
   54          C(HETATM   54  C   HET A   1)           0.313249        3.6868     1.22460     2.46215
   55          O(HETATM   55  O   HET A   1)          -0.369083        6.3691     1.91483     4.45426
   56          C(HETATM   56  C   HET A   1)          -0.245135        4.2451     1.23119     3.01395
   57          C(HETATM   57  C   HET A   1)           0.161106        3.8389     1.23853     2.60037
   58          O(HETATM   58  O   HET A   1)          -0.288800        6.2888     1.88321     4.40559
   59          C(HETATM   59  C   HET A   1)          -0.043121        4.0431     1.24442     2.79871
   60          C(HETATM   60  C   HET A   1)          -0.025229        4.0252     1.23722     2.78801
   61          C(HETATM   61  C   HET A   1)          -0.036746        4.0367     1.24064     2.79611
   62          C(HETATM   62  C   HET A   1)          -0.030810        4.0308     1.24024     2.79057
   63          O(HETATM   63  O   HET A   1)          -0.324850        6.3248     1.87031     4.45454
   64          O(HETATM   64  O   HET A   1)          -0.322284        6.3223     1.87149     4.45079
   65          O(HETATM   65  O   HET A   1)          -0.324404        6.3244     1.87201     4.45239
   66          C(HETATM   66  C   HET A   1)          -0.001812        4.0018     1.22778     2.77403
   67          O(HETATM   67  O   HET A   1)          -0.331179        6.3312     1.87009     4.46109
   68          H(HETATM   68  H   HET A   1)           0.232320        0.7677     0.76768
   69          H(HETATM   69  H   HET A   1)           0.107273        0.8927     0.89273
   70          H(HETATM   70  H   HET A   1)           0.147956        0.8520     0.85204
   71          H(HETATM   71  H   HET A   1)           0.228002        0.7720     0.77200
   72          H(HETATM   72  H   HET A   1)           0.129844        0.8702     0.87016
   73          H(HETATM   73  H   HET A   1)           0.228514        0.7715     0.77149
   74          H(HETATM   74  H   HET A   1)           0.124057        0.8759     0.87594
   75          H(HETATM   75  H   HET A   1)           0.099681        0.9003     0.90032
   76          H(HETATM   76  H   HET A   1)           0.076983        0.9230     0.92302
   77          H(HETATM   77  H   HET A   1)           0.122815        0.8772     0.87719
   78          H(HETATM   78  H   HET A   1)           0.224284        0.7757     0.77572
   79          H(HETATM   79  H   HET A   1)           0.105707        0.8943     0.89429
   80          H(HETATM   80  H   HET A   1)           0.122397        0.8776     0.87760
   81          H(HETATM   81  H   HET A   1)           0.100326        0.8997     0.89967
   82          H(HETATM   82  H   HET A   1)           0.101120        0.8989     0.89888
   83          H(HETATM   83  H   HET A   1)           0.157251        0.8427     0.84275
   84          H(HETATM   84  H   HET A   1)           0.223284        0.7767     0.77672
   85          H(HETATM   85  H   HET A   1)           0.116029        0.8840     0.88397
   86          H(HETATM   86  H   HET A   1)           0.225478        0.7745     0.77452
   87          H(HETATM   87  H   HET A   1)           0.129601        0.8704     0.87040
   88          H(HETATM   88  H   HET A   1)           0.102868        0.8971     0.89713
   89          H(HETATM   89  H   HET A   1)           0.104311        0.8957     0.89569
   90          H(HETATM   90  H   HET A   1)           0.082322        0.9177     0.91768
   91          H(HETATM   91  H   HET A   1)           0.231316        0.7687     0.76868
   92          H(HETATM   92  H   HET A   1)           0.104277        0.8957     0.89572
   93          H(HETATM   93  H   HET A   1)           0.117612        0.8824     0.88239
   94          H(HETATM   94  H   HET A   1)           0.098694        0.9013     0.90131
   95          H(HETATM   95  H   HET A   1)           0.083791        0.9162     0.91621
   96          H(HETATM   96  H   HET A   1)           0.150452        0.8495     0.84955
   97          H(HETATM   97  H   HET A   1)           0.226491        0.7735     0.77351
   98          H(HETATM   98  H   HET A   1)           0.127030        0.8730     0.87297
   99          H(HETATM   99  H   HET A   1)           0.211490        0.7885     0.78851
  100          H(HETATM  100  H   HET A   1)           0.125137        0.8749     0.87486
  101          H(HETATM  101  H   HET A   1)           0.099780        0.9002     0.90022
  102          H(HETATM  102  H   HET A   1)           0.112507        0.8875     0.88749
  103          H(HETATM  103  H   HET A   1)           0.084559        0.9154     0.91544
  104          H(HETATM  104  H   HET A   1)           0.233933        0.7661     0.76607
  105          H(HETATM  105  H   HET A   1)           0.099785        0.9002     0.90022
  106          H(HETATM  106  H   HET A   1)           0.121274        0.8787     0.87873
  107          H(HETATM  107  H   HET A   1)           0.105214        0.8948     0.89479
  108          H(HETATM  108  H   HET A   1)           0.150595        0.8494     0.84940
  109          H(HETATM  109  H   HET A   1)           0.216178        0.7838     0.78382
  110          H(HETATM  110  H   HET A   1)           0.242867        0.7571     0.75713
  111          H(HETATM  111  H   HET A   1)           0.189087        0.8109     0.81091
  112          H(HETATM  112  H   HET A   1)           0.104939        0.8951     0.89506
  113          H(HETATM  113  H   HET A   1)           0.137898        0.8621     0.86210
  114          H(HETATM  114  H   HET A   1)           0.073255        0.9267     0.92675
  115          H(HETATM  115  H   HET A   1)           0.105569        0.8944     0.89443
  116          H(HETATM  116  H   HET A   1)           0.104216        0.8958     0.89578
  117          H(HETATM  117  H   HET A   1)           0.121624        0.8784     0.87838
  118          H(HETATM  118  H   HET A   1)           0.103289        0.8967     0.89671
  119          H(HETATM  119  H   HET A   1)           0.114761        0.8852     0.88524
  120          H(HETATM  120  H   HET A   1)           0.109540        0.8905     0.89046
  121          H(HETATM  121  H   HET A   1)           0.138243        0.8618     0.86176
  122          H(HETATM  122  H   HET A   1)           0.132384        0.8676     0.86762
  123          H(HETATM  123  H   HET A   1)           0.100957        0.8990     0.89904
  124          H(HETATM  124  H   HET A   1)           0.226683        0.7733     0.77332
  125          H(HETATM  125  H   HET A   1)           0.220797        0.7792     0.77920
  126          H(HETATM  126  H   HET A   1)           0.217833        0.7822     0.78217
  127          H(HETATM  127  H   HET A   1)           0.080841        0.9192     0.91916
  128          H(HETATM  128  H   HET A   1)           0.110673        0.8893     0.88933
  129          H(HETATM  129  H   HET A   1)           0.230761        0.7692     0.76924

          NET CHARGE ON RESIDUES

      Residue         Charge  Anion or
                              Cation?
      HET A   1       +0.000
 


 DIPOLE           X         Y         Z       TOTAL
 POINT-CHG.    -2.078    -1.635    -2.157     3.412
 HYBRID        -0.552    -0.534     0.232     0.802
 SUM           -2.629    -2.169    -1.925     3.915


          ATOMIC ORBITAL ELECTRON POPULATIONS

                   Atom                  s        px        py        pz   
   C(HETATM    1  C   HET A   1)   1.24604   0.88763   0.83116   0.89618
   C(HETATM    2  C   HET A   1)   1.22802   0.90054   0.87995   1.01125
   N(HETATM    3  N   HET A   1)   1.46184   1.36877   1.08013   1.46742
   C(HETATM    4  C   HET A   1)   1.23852   0.84029   0.94318   0.98363
   O(HETATM    5  O   HET A   1)   1.86987   1.21798   1.93580   1.30548
   C(HETATM    6  C   HET A   1)   1.24567   0.93352   0.95999   0.88332
   O(HETATM    7  O   HET A   1)   1.87704   1.30574   1.75020   1.32987
   C(HETATM    8  C   HET A   1)   1.24011   0.90527   0.95338   0.89735
   O(HETATM    9  O   HET A   1)   1.87955   1.61351   1.27624   1.53493
   C(HETATM   10  C   HET A   1)   1.23048   0.93070   0.83239   1.01468
   O(HETATM   11  O   HET A   1)   1.86989   1.49467   1.47089   1.48837
   C(HETATM   12  C   HET A   1)   1.22365   0.77715   0.91877   0.76298
   O(HETATM   13  O   HET A   1)   1.91633   1.57236   1.38951   1.50164
   C(HETATM   14  C   HET A   1)   1.22929   1.03308   0.93248   1.04492
   C(HETATM   15  C   HET A   1)   1.25148   0.77970   0.92171   0.90190
   C(HETATM   16  C   HET A   1)   1.22948   0.90076   0.90498   0.98586
   N(HETATM   17  N   HET A   1)   1.46949   1.38970   1.41844   1.08857
   C(HETATM   18  C   HET A   1)   1.23285   0.90681   0.86071   0.98829
   O(HETATM   19  O   HET A   1)   1.86953   1.86225   1.20662   1.36957
   C(HETATM   20  C   HET A   1)   1.24266   0.82394   0.95016   1.00948
   O(HETATM   21  O   HET A   1)   1.87884   1.18806   1.82927   1.35437
   C(HETATM   22  C   HET A   1)   1.23948   0.81348   0.95020   1.00984
   O(HETATM   23  O   HET A   1)   1.87639   1.16098   1.68444   1.60363
   C(HETATM   24  C   HET A   1)   1.23069   0.99048   0.96082   0.83162
   O(HETATM   25  O   HET A   1)   1.87000   1.29423   1.84107   1.33313
   C(HETATM   26  C   HET A   1)   1.22409   0.78675   0.76886   0.90847
   O(HETATM   27  O   HET A   1)   1.91620   1.63987   1.62869   1.17572
   C(HETATM   28  C   HET A   1)   1.23023   1.01706   1.01598   0.97943
   C(HETATM   29  C   HET A   1)   1.24789   0.94688   0.82177   0.83532
   C(HETATM   30  C   HET A   1)   1.23021   0.96110   0.98387   0.85052
   N(HETATM   31  N   HET A   1)   1.46510   1.68434   1.15121   1.07108
   C(HETATM   32  C   HET A   1)   1.23473   0.88091   0.94360   0.93280
   O(HETATM   33  O   HET A   1)   1.87061   1.17223   1.83251   1.43804
   C(HETATM   34  C   HET A   1)   1.24224   0.97040   0.85886   0.94941
   O(HETATM   35  O   HET A   1)   1.87851   1.35203   1.24423   1.76872
   C(HETATM   36  C   HET A   1)   1.23985   0.92857   0.84615   0.99595
   O(HETATM   37  O   HET A   1)   1.87880   1.83256   1.32317   1.26829
   C(HETATM   38  C   HET A   1)   1.22989   0.96463   0.94365   0.87177
   O(HETATM   39  O   HET A   1)   1.86903   1.43812   1.25670   1.77178
   C(HETATM   40  C   HET A   1)   1.22468   0.74749   0.80757   0.90679
   O(HETATM   41  O   HET A   1)   1.91638   1.43257   1.44690   1.57569
   C(HETATM   42  C   HET A   1)   1.22988   1.04016   1.05147   0.91958
   C(HETATM   43  C   HET A   1)   1.22560   0.95892   0.81875   0.82057
   O(HETATM   44  O   HET A   1)   1.86952   1.55275   1.20822   1.71302
   C(HETATM   45  C   HET A   1)   1.21134   0.98752   1.00969   0.84173
   N(HETATM   46  N   HET A   1)   1.45040   1.44672   1.35041   1.07181
   C(HETATM   47  C   HET A   1)   1.23988   1.01432   1.00606   0.94108
   C(HETATM   48  C   HET A   1)   1.21853   0.85767   0.97844   0.89414
   O(HETATM   49  O   HET A   1)   1.87670   1.40302   1.23713   1.74440
   C(HETATM   50  C   HET A   1)   1.24290   0.87864   0.93848   0.95552
   O(HETATM   51  O   HET A   1)   1.87815   1.33346   1.88567   1.18125
   C(HETATM   52  C   HET A   1)   1.23373   0.93688   0.96247   0.90103
   O(HETATM   53  O   HET A   1)   1.86943   1.49484   1.62730   1.33341
   C(HETATM   54  C   HET A   1)   1.22460   0.77742   0.81966   0.86507
   O(HETATM   55  O   HET A   1)   1.91483   1.39251   1.25415   1.80759
   C(HETATM   56  C   HET A   1)   1.23119   1.04754   1.03505   0.93136
   C(HETATM   57  C   HET A   1)   1.23853   0.79807   0.84211   0.96019
   O(HETATM   58  O   HET A   1)   1.88321   1.18427   1.37587   1.84545
   C(HETATM   59  C   HET A   1)   1.24442   0.83569   0.97469   0.98832
   C(HETATM   60  C   HET A   1)   1.23722   1.00471   0.92700   0.85630
   C(HETATM   61  C   HET A   1)   1.24064   0.94460   0.90980   0.94172
   C(HETATM   62  C   HET A   1)   1.24024   0.93354   0.88908   0.96794
   O(HETATM   63  O   HET A   1)   1.87031   1.73486   1.20379   1.51588
   O(HETATM   64  O   HET A   1)   1.87149   1.95516   1.30643   1.18920
   O(HETATM   65  O   HET A   1)   1.87201   1.46868   1.72587   1.25785
   C(HETATM   66  C   HET A   1)   1.22778   0.99698   0.86823   0.90883
   O(HETATM   67  O   HET A   1)   1.87009   1.34855   1.63888   1.47366
   H(HETATM   68  H   HET A   1)   0.76768
   H(HETATM   69  H   HET A   1)   0.89273
   H(HETATM   70  H   HET A   1)   0.85204
   H(HETATM   71  H   HET A   1)   0.77200
   H(HETATM   72  H   HET A   1)   0.87016
   H(HETATM   73  H   HET A   1)   0.77149
   H(HETATM   74  H   HET A   1)   0.87594
   H(HETATM   75  H   HET A   1)   0.90032
   H(HETATM   76  H   HET A   1)   0.92302
   H(HETATM   77  H   HET A   1)   0.87719
   H(HETATM   78  H   HET A   1)   0.77572
   H(HETATM   79  H   HET A   1)   0.89429
   H(HETATM   80  H   HET A   1)   0.87760
   H(HETATM   81  H   HET A   1)   0.89967
   H(HETATM   82  H   HET A   1)   0.89888
   H(HETATM   83  H   HET A   1)   0.84275
   H(HETATM   84  H   HET A   1)   0.77672
   H(HETATM   85  H   HET A   1)   0.88397
   H(HETATM   86  H   HET A   1)   0.77452
   H(HETATM   87  H   HET A   1)   0.87040
   H(HETATM   88  H   HET A   1)   0.89713
   H(HETATM   89  H   HET A   1)   0.89569
   H(HETATM   90  H   HET A   1)   0.91768
   H(HETATM   91  H   HET A   1)   0.76868
   H(HETATM   92  H   HET A   1)   0.89572
   H(HETATM   93  H   HET A   1)   0.88239
   H(HETATM   94  H   HET A   1)   0.90131
   H(HETATM   95  H   HET A   1)   0.91621
   H(HETATM   96  H   HET A   1)   0.84955
   H(HETATM   97  H   HET A   1)   0.77351
   H(HETATM   98  H   HET A   1)   0.87297
   H(HETATM   99  H   HET A   1)   0.78851
   H(HETATM  100  H   HET A   1)   0.87486
   H(HETATM  101  H   HET A   1)   0.90022
   H(HETATM  102  H   HET A   1)   0.88749
   H(HETATM  103  H   HET A   1)   0.91544
   H(HETATM  104  H   HET A   1)   0.76607
   H(HETATM  105  H   HET A   1)   0.90022
   H(HETATM  106  H   HET A   1)   0.87873
   H(HETATM  107  H   HET A   1)   0.89479
   H(HETATM  108  H   HET A   1)   0.84940
   H(HETATM  109  H   HET A   1)   0.78382
   H(HETATM  110  H   HET A   1)   0.75713
   H(HETATM  111  H   HET A   1)   0.81091
   H(HETATM  112  H   HET A   1)   0.89506
   H(HETATM  113  H   HET A   1)   0.86210
   H(HETATM  114  H   HET A   1)   0.92675
   H(HETATM  115  H   HET A   1)   0.89443
   H(HETATM  116  H   HET A   1)   0.89578
   H(HETATM  117  H   HET A   1)   0.87838
   H(HETATM  118  H   HET A   1)   0.89671
   H(HETATM  119  H   HET A   1)   0.88524
   H(HETATM  120  H   HET A   1)   0.89046
   H(HETATM  121  H   HET A   1)   0.86176
   H(HETATM  122  H   HET A   1)   0.86762
   H(HETATM  123  H   HET A   1)   0.89904
   H(HETATM  124  H   HET A   1)   0.77332
   H(HETATM  125  H   HET A   1)   0.77920
   H(HETATM  126  H   HET A   1)   0.78217
   H(HETATM  127  H   HET A   1)   0.91916
   H(HETATM  128  H   HET A   1)   0.88933
   H(HETATM  129  H   HET A   1)   0.76924

 **********************
 *                    *
 * JOB ENDED NORMALLY *
 *                    *
 **********************



 TOTAL JOB TIME:           377.04 SECONDS

 == MOPAC DONE ==
